version 3
run PureAlohaExperiment-25-20260306-12:10:20-8840
attr configname PureAlohaExperiment
attr datetime 20260306-12:10:20
attr datetimef 20260306-121020
attr experiment PureAlohaExperiment
attr inifile omnetpp.ini
attr iterationvars "$numHosts=15, $iaMean=7"
attr iterationvarsd numHosts=15/iaMean=7
attr iterationvarsf numHosts=15,iaMean=7-
attr measurement "$numHosts=15, $iaMean=7"
attr network Aloha
attr processid 8840
attr repetition 1
attr replication #1
attr resultdir results
attr runnumber 25
attr seedset 25
itervar iaMean 7
itervar numHosts 15
config description "Channel utilization in the function of packet generation frequency"
config repeat 2
config sim-time-limit 90min
config Aloha.numHosts 15
config Aloha.host[*].iaTime exponential(7s)
config network Aloha
config Aloha.numHosts 20
config Aloha.slotTime 0s
config Aloha.txRate 9.6kbps
config Aloha.host[*].pkLenBits 952b
config **.x "uniform(0m, 1000m)"
config **.y "uniform(0m, 1000m)"
config **.animationHoldTimeOnCollision 0s
config **.idleAnimationSpeed 1
config **.transmissionEdgeAnimationSpeed 1e-6
config **.midTransmissionAnimationSpeed 1e-1

vector 0 Aloha.server serverChannelState:vector ETV
attr enum IDLE=0,TRANSMISSION=1,COLLISION=2
attr recordingmode vector
attr source channelState
attr title "Channel state"
vector 1 Aloha.host[0] radioState:vector ETV
attr enum IDLE=0,TRANSMIT=1
attr recordingmode vector
attr source state
attr title "Radio state"
vector 2 Aloha.host[1] radioState:vector ETV
attr enum IDLE=0,TRANSMIT=1
attr recordingmode vector
attr source state
attr title "Radio state"
vector 3 Aloha.host[2] radioState:vector ETV
attr enum IDLE=0,TRANSMIT=1
attr recordingmode vector
attr source state
attr title "Radio state"
vector 4 Aloha.host[3] radioState:vector ETV
attr enum IDLE=0,TRANSMIT=1
attr recordingmode vector
attr source state
attr title "Radio state"
vector 5 Aloha.host[4] radioState:vector ETV
attr enum IDLE=0,TRANSMIT=1
attr recordingmode vector
attr source state
attr title "Radio state"
vector 6 Aloha.host[5] radioState:vector ETV
attr enum IDLE=0,TRANSMIT=1
attr recordingmode vector
attr source state
attr title "Radio state"
vector 7 Aloha.host[6] radioState:vector ETV
attr enum IDLE=0,TRANSMIT=1
attr recordingmode vector
attr source state
attr title "Radio state"
vector 8 Aloha.host[7] radioState:vector ETV
attr enum IDLE=0,TRANSMIT=1
attr recordingmode vector
attr source state
attr title "Radio state"
vector 9 Aloha.host[8] radioState:vector ETV
attr enum IDLE=0,TRANSMIT=1
attr recordingmode vector
attr source state
attr title "Radio state"
vector 10 Aloha.host[9] radioState:vector ETV
attr enum IDLE=0,TRANSMIT=1
attr recordingmode vector
attr source state
attr title "Radio state"
vector 11 Aloha.host[10] radioState:vector ETV
attr enum IDLE=0,TRANSMIT=1
attr recordingmode vector
attr source state
attr title "Radio state"
vector 12 Aloha.host[11] radioState:vector ETV
attr enum IDLE=0,TRANSMIT=1
attr recordingmode vector
attr source state
attr title "Radio state"
vector 13 Aloha.host[12] radioState:vector ETV
attr enum IDLE=0,TRANSMIT=1
attr recordingmode vector
attr source state
attr title "Radio state"
vector 14 Aloha.host[13] radioState:vector ETV
attr enum IDLE=0,TRANSMIT=1
attr recordingmode vector
attr source state
attr title "Radio state"
vector 15 Aloha.host[14] radioState:vector ETV
attr enum IDLE=0,TRANSMIT=1
attr recordingmode vector
attr source state
attr title "Radio state"
vector 16 Aloha.server channelUtilizationVector:vector ETV
attr interpolationmode linear
attr recordingmode vector
attr source timeavg(receive)
attr title "channel utilization evolution"
0	0	0	0
0	2	1.843338949593	1
0	4	1.94250561626	0
0	6	2.075527969227	1
0	8	2.174694635894	0
0	10	2.554668862811	1
0	12	2.653835529478	0
0	14	2.762208488679	1
0	16	2.861375155346	0
0	18	3.146584009141	1
0	20	3.194304708101	2
0	23	3.293471374768	0
0	25	3.380751184469	1
0	27	3.479917851136	0
0	29	3.538871410357	1
0	31	3.638038077024	0
0	33	4.544524370266	1
0	35	4.595588435375	2
0	38	4.694755102042	0
0	40	5.086964338976	1
0	42	5.186131005643	0
0	44	5.856682652045	1
0	46	5.955849318712	0
0	48	7.229043542602	1
0	50	7.328210209269	0
0	52	8.408850445777	1
0	54	8.508017112444	0
0	56	8.519967566825	1
0	58	8.593193685144	2
0	61	8.692360351811	0
0	63	8.93116445164	1
0	65	8.935904182023	2
0	68	9.03507084869	0
0	70	9.75219247427	1
0	72	9.851359140937	0
0	74	9.976372280573	1
0	76	9.993698521248	2
0	79	10.092865187915	0
0	81	10.824100282135	1
0	83	10.866032157095	2
0	86	10.965198823762	0
0	88	12.333489326025	1
0	90	12.432655992692	0
0	92	12.547048774737	1
0	94	12.646215441404	0
0	96	12.67122773229	1
0	98	12.770394398957	0
0	100	13.318770333691	1
0	102	13.417937000358	0
0	104	14.338065884824	1
0	106	14.437232551491	0
0	108	14.978130057534	1
0	110	15.077296724201	0
0	112	15.918593682784	1
0	114	16.017760349451	0
0	116	16.414903639874	1
0	118	16.514070306541	0
0	120	16.635767252683	1
0	122	16.73493391935	0
0	124	16.787489592609	1
0	126	16.886656259276	0
0	128	17.655818690459	1
0	130	17.667537957757	2
0	133	17.766704624424	0
0	135	18.31693194446	1
0	137	18.416098611127	0
0	139	18.505210492477	1
0	141	18.598511471494	2
0	144	18.697678138161	0
0	146	19.3378061274	1
0	148	19.436972794067	0
0	150	19.872414685918	1
0	152	19.971581352585	0
0	154	20.08327424429	1
0	156	20.182440910957	0
0	158	21.287596194951	1
0	160	21.386762861618	0
0	162	21.79005975069	1
0	164	21.889226417357	0
0	166	22.229081498402	1
0	168	22.328248165069	0
0	170	24.010470426034	1
0	172	24.109637092701	0
0	174	24.443331143032	1
0	176	24.542497809699	0
0	178	24.829686017571	1
0	180	24.928852684238	0
0	182	25.171675455253	1
0	184	25.27084212192	0
0	186	25.457636961829	1
0	188	25.556803628496	0
0	190	25.662841773153	1
0	192	25.76200843982	0
0	194	25.938594582454	1
0	196	26.037761249121	0
0	198	26.412208899616	1
0	200	26.511375566283	0
0	202	26.993689754794	1
0	204	27.092856421461	0
0	206	27.343436405251	1
0	208	27.442603071918	0
0	210	28.353691969689	1
0	212	28.436940410926	2
0	215	28.536107077593	0
0	217	28.883690742207	1
0	219	28.982857408874	0
0	221	29.313906861663	1
0	223	29.41307352833	0
0	225	29.972001285538	1
0	227	30.071167952205	0
0	229	30.298316654191	1
0	231	30.397483320858	0
0	233	30.97798107284	1
0	235	31.077147739507	0
0	237	31.789836291138	1
0	239	31.822153794263	2
0	242	31.92132046093	0
0	244	33.211740374441	1
0	246	33.260335317618	2
0	249	33.359501984285	0
0	251	33.696394993585	1
0	253	33.795561660252	0
0	255	34.773255435094	1
0	257	34.872422101761	0
0	259	35.007767208306	1
0	261	35.106933874973	0
0	263	35.601947716688	1
0	265	35.701114383355	0
0	267	37.359350713198	1
0	269	37.458517379865	0
0	271	38.293123498423	1
0	273	38.39229016509	0
0	275	38.549636264095	1
0	277	38.648802930762	0
0	279	38.717694129833	1
0	281	38.8168607965	0
0	283	39.081072966493	1
0	285	39.18023963316	0
0	287	39.372457679372	1
0	289	39.471624346039	0
0	291	39.653824874117	1
0	293	39.752991540784	0
0	295	39.861797233213	1
0	297	39.96096389988	0
0	299	40.054816595496	1
0	301	40.153983262163	0
0	303	40.663403350358	1
0	305	40.762570017025	0
0	307	40.806618050912	1
0	309	40.905784717579	0
0	311	41.248003489076	1
0	313	41.347170155743	0
0	315	41.558174030429	1
0	317	41.627282351199	2
0	320	41.690983738133	2
0	323	41.7901504048	0
0	325	42.055695648398	1
0	327	42.154862315065	0
0	329	42.199438564945	1
0	331	42.298605231612	0
0	333	42.389647875257	1
0	335	42.404430791793	2
0	338	42.50359745846	0
0	340	42.715787181885	1
0	342	42.814953848552	0
0	344	43.384557888509	1
0	346	43.483724555176	0
0	348	43.592768618559	1
0	350	43.691935285226	0
0	352	44.733923556031	1
0	354	44.833090222698	0
0	356	45.056458995548	1
0	358	45.155625662215	0
0	360	45.294824611129	1
0	362	45.393991277796	0
0	364	45.577319279121	1
0	366	45.58900012165	2
0	369	45.688166788317	0
0	371	45.859150990655	1
0	373	45.958317657322	0
0	375	46.345680999302	1
0	377	46.444847665969	0
0	379	46.864969282128	1
0	381	46.964135948795	0
0	383	46.99433891888	1
0	385	47.093505585547	0
0	387	47.305138261707	1
0	389	47.404304928374	0
0	391	48.344475041257	1
0	393	48.443641707924	0
0	395	48.880970443109	1
0	397	48.980137109776	0
0	399	49.038799297954	1
0	401	49.137965964621	0
0	403	49.640837682012	1
0	405	49.740004348679	0
0	407	50.083365805861	1
0	409	50.176765774522	2
0	412	50.275932441189	0
0	414	50.512041183472	1
0	416	50.611207850139	0
0	418	51.478760117167	1
0	420	51.577926783834	0
0	422	51.959337481287	1
0	424	51.975173227493	2
0	427	52.07433989416	0
0	429	52.701166712282	1
0	431	52.800333378949	0
0	433	52.948410304939	1
0	435	53.047576971606	0
0	437	53.73626962484	1
0	439	53.835436291507	0
0	441	54.580300165437	1
0	443	54.639614960977	2
0	445	54.679174504996	2
0	449	54.778341171663	0
0	451	54.918133948339	1
0	453	55.017300615006	0
0	455	55.168542306542	1
0	457	55.267708973209	0
0	459	55.530511250324	1
0	461	55.629677916991	0
0	463	55.67650279629	1
0	465	55.775669462957	0
0	467	56.025841996067	1
0	469	56.125008662734	0
0	471	56.276265060564	1
0	473	56.375431727231	0
0	475	56.545901444697	1
0	477	56.645068111364	0
0	479	56.779794062087	1
0	481	56.878960728754	0
0	483	57.276224320333	1
0	485	57.343321103485	2
0	488	57.426207295547	2
0	491	57.525373962214	0
0	493	58.069451704536	1
0	495	58.069800029634	2
0	498	58.168966696301	0
0	500	59.006358539204	1
0	502	59.105525205871	0
0	504	59.487639430791	1
0	506	59.585873867956	2
0	509	59.651116125234	2
0	512	59.750282791901	0
0	514	60.808055233847	1
0	516	60.907221900514	0
0	518	61.093714123157	1
0	520	61.138592968329	2
0	523	61.237759634996	0
0	525	61.653475111778	1
0	527	61.752641778445	0
0	529	61.992483699115	1
0	531	62.091650365782	0
0	533	62.503289026602	1
0	535	62.602455693269	0
0	537	63.530898931544	1
0	539	63.630065598211	0
0	541	64.212182329057	1
0	543	64.214759673731	2
0	546	64.313926340398	0
0	548	64.984043180237	1
0	550	65.083209846904	0
0	552	65.443174876918	1
0	554	65.542341543585	0
0	556	65.995838010466	1
0	558	66.095004677133	0
0	560	66.744063426864	1
0	562	66.843230093531	0
0	564	66.963149623186	1
0	566	67.062316289853	0
0	568	67.517276324829	1
0	570	67.616442991496	0
0	572	67.623517042851	1
0	574	67.722683709518	0
0	576	68.339624742508	1
0	578	68.438791409175	0
0	580	68.566969050896	1
0	582	68.666135717563	0
0	584	69.822000275478	1
0	586	69.921166942145	0
0	588	69.977106783308	1
0	590	70.076273449975	0
0	592	70.495496529137	1
0	594	70.594663195804	0
0	596	70.973326089254	1
0	598	71.072492755921	0
0	600	71.129318998777	1
0	602	71.228485665444	0
0	604	71.358735913096	1
0	606	71.457902579763	0
0	608	71.699258531718	1
0	610	71.759192317417	2
0	613	71.858358984084	0
0	615	72.137665307119	1
0	617	72.236831973786	0
0	619	72.4969346561	1
0	621	72.596101322767	0
0	623	73.102279985001	1
0	625	73.201446651668	0
0	627	73.328377377334	1
0	629	73.419414825147	2
0	632	73.518581491814	0
0	634	73.72891384823	1
0	636	73.828080514897	0
0	638	73.887963463361	1
0	640	73.987130130028	0
0	642	74.151423862577	1
0	644	74.191132457201	2
0	647	74.290299123868	0
0	649	74.882222002941	1
0	651	74.906054803229	2
0	654	75.005221469896	0
0	656	75.293403029256	1
0	658	75.392569695923	0
0	660	75.405573971911	1
0	662	75.49812773394	2
0	665	75.597294400607	0
0	667	75.870325691788	1
0	669	75.969492358455	0
0	671	77.154914444739	1
0	673	77.254081111406	0
0	675	77.286384111048	1
0	677	77.385550777715	0
0	679	78.252973018503	1
0	681	78.297005144951	2
0	684	78.396171811618	0
0	686	80.238670964439	1
0	688	80.337837631106	0
0	690	81.541590727959	1
0	692	81.640757394626	0
0	694	82.798163909318	1
0	696	82.897330575985	0
0	698	83.058980760436	1
0	700	83.158147427103	0
0	702	84.308967769457	1
0	704	84.408134436124	0
0	706	85.228221245598	1
0	708	85.327387912265	0
0	710	85.45030707011	1
0	712	85.549473736777	0
0	714	86.130947246568	1
0	716	86.164893788524	2
0	719	86.264060455191	0
0	721	86.310397136755	1
0	723	86.396397321084	2
0	726	86.476069172299	2
0	729	86.575235838966	0
0	731	87.197896393758	1
0	733	87.297063060425	0
0	735	87.463875513858	1
0	737	87.490137091852	2
0	740	87.589303758519	0
0	742	87.938552697353	1
0	744	87.964614466247	2
0	747	88.063781132914	0
0	749	88.231528232354	1
0	751	88.330694899021	0
0	753	88.83037721701	1
0	755	88.876070940919	2
0	758	88.964624218536	2
0	761	89.063790885203	0
0	763	89.345771250399	1
0	765	89.444937917066	0
0	767	89.471378872482	1
0	769	89.556743533258	2
0	771	89.561899091743	2
0	774	89.599637293854	2
0	778	89.698803960521	0
0	780	89.767482328367	1
0	782	89.866648995034	0
0	784	90.256202904849	1
0	786	90.355369571516	0
0	788	90.985443199505	1
0	790	91.084609866172	0
0	792	91.250529452699	1
0	794	91.278246933189	2
0	797	91.377413599856	0
0	799	92.488987513446	1
0	801	92.588154180113	0
0	803	92.912825804549	1
0	805	93.011992471216	0
0	807	93.179026817851	1
0	809	93.278193484518	0
0	811	93.846647344455	1
0	813	93.945814011122	0
0	815	95.527134253827	1
0	817	95.626300920494	0
0	819	95.636063975306	1
0	821	95.735230641973	0
0	823	96.872978905743	1
0	825	96.97214557241	0
0	827	96.997771868053	1
0	829	97.09693853472	0
0	831	97.262613113918	1
0	833	97.361779780585	0
0	835	97.376553980015	1
0	837	97.475720646682	0
0	839	97.477535820629	1
0	841	97.497921389069	2
0	844	97.597088055736	0
0	846	98.410152320557	1
0	848	98.509318987224	0
0	850	98.700847063622	1
0	852	98.800013730289	0
0	854	99.44050382521	1
0	856	99.539670491877	0
0	858	100.623935381789	1
0	860	100.723102048456	0
0	862	101.601455874556	1
0	864	101.700622541223	0
0	866	101.778869499738	1
0	868	101.805566594898	2
0	871	101.904733261565	0
0	873	102.717453435742	1
0	875	102.816620102409	0
0	877	103.459934369949	1
0	879	103.559101036616	0
0	881	104.100951789699	1
0	883	104.200118456366	0
0	885	104.967809741661	1
0	887	105.066976408328	0
0	889	107.020281858537	1
0	891	107.037072731504	2
0	894	107.136239398171	0
0	896	109.116170483179	1
0	898	109.215337149846	0
0	900	109.304818690996	1
0	902	109.373027737008	2
0	905	109.472194403675	0
0	907	109.627826744385	1
0	909	109.726993411052	0
0	911	109.928257429174	1
0	913	110.027424095841	0
0	915	110.576660049784	1
0	917	110.675826716451	0
0	919	110.921194157447	1
0	921	111.020360824114	0
0	923	111.962039038879	1
0	925	112.061205705546	0
0	927	112.432447307294	1
0	929	112.531613973961	0
0	931	112.853656061498	1
0	933	112.952822728165	0
0	935	112.996769874963	1
0	937	113.09593654163	0
0	939	113.359007349851	1
0	941	113.372391793633	2
0	944	113.4715584603	0
0	946	113.930480525626	1
0	948	114.029647192293	0
0	950	114.942973336362	1
0	952	114.962987734808	2
0	955	115.062154401475	0
0	957	116.41121030111	1
0	959	116.510376967777	0
0	961	117.00928183323	1
0	963	117.049420143661	2
0	965	117.067559038691	2
0	969	117.166725705358	0
0	971	117.466805422016	1
0	973	117.565972088683	0
0	975	117.586321781617	1
0	977	117.685488448284	0
0	979	118.312019122233	1
0	981	118.4111857889	0
0	983	119.106057065865	1
0	985	119.205223732532	0
0	987	119.365991440728	1
0	989	119.430782478769	2
0	992	119.529949145436	0
0	994	119.550560364148	1
0	996	119.649727030815	0
0	998	119.789806786779	1
0	1000	119.888973453446	0
0	1002	119.993162014393	1
0	1004	120.09232868106	0
0	1006	120.448194510854	1
0	1008	120.499533887461	2
0	1010	120.520850260806	2
0	1014	120.620016927473	0
0	1016	120.637452493033	1
0	1018	120.7366191597	0
0	1020	120.872993003942	1
0	1022	120.972159670609	0
0	1024	121.044054044177	1
0	1026	121.143220710844	0
0	1028	121.193674502199	1
0	1030	121.292841168866	0
0	1032	122.143877542347	1
0	1034	122.243044209014	0
0	1036	122.481605952889	1
0	1038	122.580772619556	0
0	1040	122.603135566237	1
0	1042	122.702302232904	0
0	1044	123.084502352619	1
0	1046	123.183669019286	0
0	1048	123.665717832923	1
0	1050	123.76488449959	0
0	1052	124.468843009954	1
0	1054	124.531418427364	2
0	1057	124.630585094031	0
0	1059	125.10039522549	1
0	1061	125.199561892157	0
0	1063	125.404845723389	1
0	1065	125.504012390056	0
0	1067	125.869579800669	1
0	1069	125.968746467336	0
0	1071	127.177701688515	1
0	1073	127.276868355182	0
0	1075	127.692008452671	1
0	1077	127.791175119338	0
0	1079	128.243606553602	1
0	1081	128.342773220269	0
0	1083	129.310539933216	1
0	1085	129.409706599883	0
0	1087	130.024410737817	1
0	1089	130.123577404484	0
0	1091	130.698826058554	1
0	1093	130.739848611874	2
0	1096	130.839015278541	0
0	1098	131.323200501854	1
0	1100	131.422367168521	0
0	1102	132.783637881567	1
0	1104	132.871957322489	2
0	1107	132.971123989156	0
0	1109	132.991023101962	1
0	1111	133.090189768629	0
0	1113	133.494442739115	1
0	1115	133.593609405782	0
0	1117	133.641273282504	1
0	1119	133.740439949171	0
0	1121	134.417472733737	1
0	1123	134.516639400404	0
0	1125	135.714348108727	1
0	1127	135.813514775394	0
0	1129	135.830011355645	1
0	1131	135.929178022312	0
0	1133	137.132210859858	1
0	1135	137.231377526525	0
0	1137	137.743052887354	1
0	1139	137.842219554021	0
0	1141	137.998295843937	1
0	1143	138.097462510604	0
0	1145	138.453392887821	1
0	1147	138.552559554488	0
0	1149	138.620942890825	1
0	1151	138.720109557492	0
0	1153	138.966247100195	1
0	1155	138.973721272018	2
0	1157	139.041328885498	2
0	1161	139.124968042794	2
0	1164	139.224134709461	0
0	1166	139.927962030758	1
0	1168	140.027128697425	0
0	1170	140.072475330097	1
0	1172	140.171641996764	0
0	1174	140.220181657455	1
0	1176	140.319348324122	0
0	1178	140.745160618498	1
0	1180	140.844327285165	0
0	1182	140.90535907882	1
0	1184	141.004525745487	0
0	1186	141.579867574486	1
0	1188	141.580689079377	2
0	1191	141.679855746044	0
0	1193	142.164070615552	1
0	1195	142.263237282219	0
0	1197	142.295415886671	1
0	1199	142.341852521693	2
0	1202	142.44101918836	0
0	1204	142.777375947533	1
0	1206	142.8765426142	0
0	1208	143.725838756353	1
0	1210	143.82500542302	0
0	1212	144.223379512594	1
0	1214	144.322546179261	0
0	1216	144.329910795429	1
0	1218	144.353192397081	2
0	1221	144.452359063748	0
0	1223	144.508247046366	1
0	1225	144.607413713033	0
0	1227	144.67761484551	1
0	1229	144.745010025745	2
0	1232	144.844176692412	0
0	1234	145.074533674239	1
0	1236	145.082815536905	2
0	1239	145.181982203572	0
0	1241	145.457725901927	1
0	1243	145.556892568594	0
0	1245	146.285205249786	1
0	1247	146.384371916453	0
0	1249	147.211256422298	1
0	1251	147.310423088965	0
0	1253	148.45713487946	1
0	1255	148.556301546127	0
0	1257	148.933863017329	1
0	1259	149.033029683996	0
0	1261	149.160163481206	1
0	1263	149.259330147873	0
0	1265	149.611807329903	1
0	1267	149.71097399657	0
0	1269	149.844924192774	1
0	1271	149.944090859441	0
0	1273	150.445890820995	1
0	1275	150.545057487662	0
0	1277	151.017512465485	1
0	1279	151.116679132152	0
0	1281	152.48050163701	1
0	1283	152.579668303677	0
0	1285	153.017361035457	1
0	1287	153.116527702124	0
0	1289	153.546118395046	1
0	1291	153.645285061713	0
0	1293	153.894003716938	1
0	1295	153.993170383605	0
0	1297	154.517746353344	1
0	1299	154.616913020011	0
0	1301	154.844128601529	1
0	1303	154.936210012251	2
0	1306	155.035376678918	0
0	1308	156.441762207001	1
0	1310	156.540928873668	0
0	1312	156.7262493802	1
0	1314	156.825416046867	0
0	1316	156.869233122715	1
0	1318	156.968399789382	0
0	1320	157.036606030577	1
0	1322	157.135772697244	0
0	1324	157.148829390846	1
0	1326	157.247996057513	0
0	1328	157.368318456762	1
0	1330	157.467485123429	0
0	1332	157.619459261131	1
0	1334	157.718625927798	0
0	1336	157.968355545389	1
0	1338	158.067522212056	0
0	1340	161.394639761082	1
0	1342	161.451443058222	2
0	1345	161.550609724889	0
0	1347	161.591188067912	1
0	1349	161.690354734579	0
0	1351	162.472321108728	1
0	1353	162.571487775395	0
0	1355	162.89976989324	1
0	1357	162.998936559907	0
0	1359	163.114382532295	1
0	1361	163.213549198962	0
0	1363	164.400213852167	1
0	1365	164.444180764267	2
0	1368	164.543347430934	0
0	1370	165.108953081981	1
0	1372	165.208119748648	0
0	1374	165.692766437957	1
0	1376	165.791933104624	0
0	1378	166.200936828431	1
0	1380	166.300103495098	0
0	1382	166.437032789599	1
0	1384	166.536199456266	0
0	1386	166.777832010016	1
0	1388	166.876998676683	0
0	1390	167.135582856017	1
0	1392	167.194883571857	2
0	1395	167.294050238524	0
0	1397	167.318905271482	1
0	1399	167.418071938149	0
0	1401	167.669198968404	1
0	1403	167.768365635071	0
0	1405	168.031928222166	1
0	1407	168.131094888833	0
0	1409	169.021515446082	1
0	1411	169.120682112749	0
0	1413	169.512483400495	1
0	1415	169.554448226408	2
0	1418	169.653614893075	0
0	1420	169.928088171298	1
0	1422	170.027254837965	0
0	1424	170.173658089927	1
0	1426	170.272824756594	0
0	1428	170.511258080407	1
0	1430	170.610424747074	0
0	1432	170.768477575625	1
0	1434	170.867644242292	0
0	1436	170.890866636541	1
0	1438	170.917380892544	2
0	1441	171.016547559211	0
0	1443	171.335644201321	1
0	1445	171.434810867988	0
0	1447	171.642761855311	1
0	1449	171.741928521978	0
0	1451	171.802894370198	1
0	1453	171.867581430867	2
0	1456	171.966748097534	0
0	1458	172.256365475235	1
0	1460	172.355532141902	0
0	1462	172.754334024018	1
0	1464	172.853500690685	0
0	1466	173.240184324666	1
0	1468	173.339350991333	0
0	1470	173.380864689563	1
0	1472	173.48003135623	0
0	1474	174.736718302624	1
0	1476	174.835884969291	0
0	1478	174.922099516628	1
0	1480	175.021266183295	0
0	1482	175.315007548869	1
0	1484	175.324903322297	2
0	1487	175.424069988964	0
0	1489	176.380738457761	1
0	1491	176.479905124428	0
0	1493	176.536742239707	1
0	1495	176.635908906374	0
0	1497	177.102323569147	1
0	1499	177.143984326318	2
0	1502	177.243150992985	0
0	1504	177.435018204614	1
0	1506	177.439108549608	2
0	1509	177.538275216275	0
0	1511	177.814141409393	1
0	1513	177.91330807606	0
0	1515	178.521403397839	1
0	1517	178.620570064506	0
0	1519	179.787533742844	1
0	1521	179.847989338663	2
0	1524	179.915711062855	2
0	1527	180.014877729522	0
0	1529	180.939355794381	1
0	1531	181.038522461048	0
0	1533	181.323804238716	1
0	1535	181.422970905383	0
0	1537	182.126600029896	1
0	1539	182.225766696563	0
0	1541	182.233736920044	1
0	1543	182.332903586711	0
0	1545	182.403367321706	1
0	1547	182.425624595405	2
0	1549	182.480219493187	2
0	1553	182.579386159854	0
0	1555	182.713621196363	1
0	1557	182.81278786303	0
0	1559	182.928770820786	1
0	1561	183.009902542284	2
0	1564	183.109069208951	0
0	1566	183.193816692309	1
0	1568	183.292983358976	0
0	1570	183.840254204057	1
0	1572	183.860149439489	2
0	1575	183.959316106156	0
0	1577	186.320369522243	1
0	1579	186.41953618891	0
0	1581	187.008519677488	1
0	1583	187.107686344155	0
0	1585	187.723829616162	1
0	1587	187.822996282829	0
0	1589	188.106176231648	1
0	1591	188.205342898315	0
0	1593	188.619201316284	1
0	1595	188.718367982951	0
0	1597	190.352770044852	1
0	1599	190.451936711519	0
0	1601	190.575073524246	1
0	1603	190.674240190913	0
0	1605	191.081850937662	1
0	1607	191.181017604329	0
0	1609	191.233928156779	1
0	1611	191.333094823446	0
0	1613	191.435684745975	1
0	1615	191.534851412642	0
0	1617	191.700138689405	1
0	1619	191.799305356072	0
0	1621	192.260168244213	1
0	1623	192.35933491088	0
0	1625	193.115027250763	1
0	1627	193.21419391743	0
0	1629	193.354515423006	1
0	1631	193.453682089673	0
0	1633	193.652334511985	1
0	1635	193.751501178652	0
0	1637	193.925389266317	1
0	1639	194.02393007617	2
0	1642	194.123096742837	0
0	1644	194.261772365322	1
0	1646	194.360939031989	0
0	1648	194.54803647091	1
0	1650	194.647203137577	0
0	1652	194.937068058533	1
0	1654	195.0362347252	0
0	1656	195.178365050231	1
0	1658	195.277531716898	0
0	1660	195.767529818331	1
0	1662	195.866696484998	0
0	1664	195.962708372652	1
0	1666	196.061875039319	0
0	1668	196.5420107705	1
0	1670	196.62260592431	2
0	1673	196.721772590977	0
0	1675	197.491754776099	1
0	1677	197.590921442766	0
0	1679	197.675618708011	1
0	1681	197.774785374678	0
0	1683	198.215814540332	1
0	1685	198.314981206999	0
0	1687	198.59241990647	1
0	1689	198.691586573137	0
0	1691	199.5851568302	1
0	1693	199.684323496867	0
0	1695	199.741202943286	1
0	1697	199.840369609953	0
0	1699	200.391315953379	1
0	1701	200.393184902572	2
0	1704	200.492351569239	0
0	1706	201.926506867801	1
0	1708	202.025673534468	0
0	1710	202.31058258661	1
0	1712	202.409749253277	0
0	1714	203.477204724794	1
0	1716	203.513672253676	2
0	1719	203.597243558305	2
0	1722	203.696410224972	0
0	1724	204.293813571757	1
0	1726	204.392980238424	0
0	1728	204.450491312322	1
0	1730	204.549657978989	0
0	1732	204.758220156863	1
0	1734	204.85738682353	0
0	1736	204.895867527859	1
0	1738	204.995034194526	0
0	1740	205.208553836159	1
0	1742	205.307720502826	0
0	1744	205.779673369907	1
0	1746	205.878840036574	0
0	1748	205.979858743189	1
0	1750	206.079025409856	0
0	1752	206.115264150144	1
0	1754	206.214430816811	0
0	1756	206.532866566907	1
0	1758	206.632033233574	0
0	1760	207.63713859713	1
0	1762	207.736305263797	0
0	1764	208.777823538402	1
0	1766	208.876990205069	0
0	1768	209.835067035616	1
0	1770	209.934233702283	0
0	1772	211.087964693842	1
0	1774	211.187131360509	0
0	1776	211.329154346505	1
0	1778	211.428321013172	0
0	1780	212.306759650004	1
0	1782	212.344334997658	2
0	1785	212.443501664325	0
0	1787	212.555554401207	1
0	1789	212.654721067874	0
0	1791	214.388693363516	1
0	1793	214.487860030183	0
0	1795	214.927045742592	1
0	1797	215.026212409259	0
0	1799	215.035331121012	1
0	1801	215.134497787679	0
0	1803	215.137231572475	1
0	1805	215.236398239142	0
0	1807	217.1343988004	1
0	1809	217.233565467067	0
0	1811	218.852934955614	1
0	1813	218.952101622281	0
0	1815	219.879931627143	1
0	1817	219.955701091939	2
0	1820	220.054867758606	0
0	1822	220.528025834772	1
0	1824	220.627192501439	0
0	1826	220.82948032552	1
0	1828	220.928646992187	0
0	1830	221.061621997562	1
0	1832	221.160788664229	0
0	1834	221.637428750393	1
0	1836	221.73659541706	0
0	1838	222.024566381768	1
0	1840	222.113654504096	2
0	1843	222.212821170763	0
0	1845	222.415497711249	1
0	1847	222.421608464866	2
0	1850	222.520775131533	0
0	1852	222.725270854775	1
0	1854	222.824437521442	0
0	1856	223.701667499316	1
0	1858	223.800834165983	0
0	1860	224.535346384217	1
0	1862	224.634513050884	0
0	1864	225.735290537674	1
0	1866	225.834457204341	0
0	1868	226.268760715349	1
0	1870	226.367927382016	0
0	1872	226.542277036378	1
0	1874	226.641443703045	0
0	1876	226.682437799901	1
0	1878	226.781604466568	0
0	1880	227.114628365099	1
0	1882	227.213795031766	0
0	1884	227.930613752248	1
0	1886	228.029780418915	0
0	1888	228.05546174499	1
0	1890	228.154628411657	0
0	1892	228.175293189238	1
0	1894	228.274459855905	0
0	1896	229.16975021849	1
0	1898	229.268916885157	0
0	1900	229.66891879133	1
0	1902	229.768085457997	0
0	1904	230.720168017216	1
0	1906	230.819334683883	0
0	1908	230.826119029738	1
0	1910	230.925285696405	0
0	1912	231.247342733959	1
0	1914	231.346509400626	0
0	1916	232.044177429972	1
0	1918	232.143344096639	0
0	1920	232.79124633004	1
0	1922	232.890412996707	0
0	1924	233.101062832513	1
0	1926	233.168199945278	2
0	1929	233.267366611945	0
0	1931	233.486511029472	1
0	1933	233.585677696139	0
0	1935	233.649294464855	1
0	1937	233.748461131522	0
0	1939	234.392165546151	1
0	1941	234.401706119261	2
0	1943	234.408604422082	2
0	1947	234.507771088749	0
0	1949	234.595358123121	1
0	1951	234.694524789788	0
0	1953	235.420124558451	1
0	1955	235.519291225118	0
0	1957	235.602940247735	1
0	1959	235.702106914402	0
0	1961	235.858571935322	1
0	1963	235.957738601989	0
0	1965	236.204851338101	1
0	1967	236.304018004768	0
0	1969	236.45861850511	1
0	1971	236.557785171777	0
0	1973	237.067856860768	1
0	1975	237.132364759576	2
0	1978	237.231531426243	0
0	1980	237.38317058851	1
0	1982	237.482337255177	0
0	1984	237.493070174248	1
0	1986	237.592236840915	0
0	1988	238.674705470638	1
0	1990	238.773872137305	0
0	1992	238.984309862553	1
0	1994	239.08347652922	0
0	1996	239.260811117606	1
0	1998	239.359977784273	0
0	2000	239.833987653874	1
0	2002	239.933154320541	0
0	2004	240.039337307672	1
0	2006	240.138503974339	0
0	2008	240.929377757492	1
0	2010	241.028544424159	0
0	2012	241.599600203043	1
0	2014	241.69876686971	0
0	2016	242.091665530555	1
0	2018	242.190832197222	0
0	2020	242.473964226824	1
0	2022	242.573130893491	0
0	2024	242.850886578064	1
0	2026	242.950053244731	0
0	2028	243.142903388586	1
0	2030	243.242070055253	0
0	2032	244.147380553657	1
0	2034	244.246547220324	0
0	2036	244.344487999302	1
0	2038	244.443654665969	0
0	2040	244.839317213973	1
0	2042	244.93848388064	0
0	2044	245.982389122332	1
0	2046	246.081555788999	0
0	2048	246.304717067368	1
0	2050	246.403883734035	0
0	2052	246.458870320901	1
0	2054	246.558036987568	0
0	2056	247.186516452743	1
0	2058	247.219039106139	2
0	2061	247.318205772806	0
0	2063	247.698355876553	1
0	2065	247.79752254322	0
0	2067	247.955472247076	1
0	2069	248.054638913743	0
0	2071	248.07736874473	1
0	2073	248.176535411397	0
0	2075	249.339688105044	1
0	2077	249.438854771711	0
0	2079	249.695277322043	1
0	2081	249.79444398871	0
0	2083	250.009389394516	1
0	2085	250.108556061183	0
0	2087	250.335898600628	1
0	2089	250.353701090406	2
0	2092	250.452867757073	0
0	2094	250.569808042087	1
0	2096	250.668974708754	0
0	2098	251.447792652758	1
0	2100	251.546959319425	0
0	2102	251.674178586508	1
0	2104	251.773345253175	0
0	2106	252.593643161947	1
0	2108	252.692809828614	0
0	2110	253.164356918283	1
0	2112	253.173300132424	2
0	2115	253.272466799091	0
0	2117	254.01495975955	1
0	2119	254.114126426217	0
0	2121	254.308641464939	1
0	2123	254.407808131606	0
0	2125	254.918180362116	1
0	2127	255.017347028783	0
0	2129	255.166081909764	1
0	2131	255.265248576431	0
0	2133	255.81806514026	1
0	2135	255.917231806927	0
0	2137	256.391099387049	1
0	2139	256.490266053716	0
0	2141	257.104968041913	1
0	2143	257.20413470858	0
0	2145	257.466423461787	1
0	2147	257.565590128454	0
0	2149	258.151986674804	1
0	2151	258.251153341471	0
0	2153	258.752782275063	1
0	2155	258.85194894173	0
0	2157	259.028620896575	1
0	2159	259.127787563242	0
0	2161	259.257322828827	1
0	2163	259.292093153018	2
0	2166	259.391259819685	0
0	2168	260.005727536679	1
0	2170	260.104894203346	0
0	2172	260.145499541931	1
0	2174	260.190771818191	2
0	2177	260.289938484858	0
0	2179	260.352232568785	1
0	2181	260.451399235452	0
0	2183	260.608185114895	1
0	2185	260.707351781562	0
0	2187	260.741140807221	1
0	2189	260.840307473888	0
0	2191	261.356427045888	1
0	2193	261.455593712555	0
0	2195	261.608997540206	1
0	2197	261.708164206873	0
0	2199	262.981950354112	1
0	2201	263.008447315594	2
0	2204	263.107613982261	0
0	2206	263.383201867506	1
0	2208	263.400433373603	2