version 3
run PureAlohaExperiment-38-20260306-12:10:23-8840
attr configname PureAlohaExperiment
attr datetime 20260306-12:10:23
attr datetimef 20260306-121023
attr experiment PureAlohaExperiment
attr inifile omnetpp.ini
attr iterationvars "$numHosts=20, $iaMean=7"
attr iterationvarsd numHosts=20/iaMean=7
attr iterationvarsf numHosts=20,iaMean=7-
attr measurement "$numHosts=20, $iaMean=7"
attr network Aloha
attr processid 8840
attr repetition 0
attr replication #0
attr resultdir results
attr runnumber 38
attr seedset 38
itervar iaMean 7
itervar numHosts 20
config description "Channel utilization in the function of packet generation frequency"
config repeat 2
config sim-time-limit 90min
config Aloha.numHosts 20
config Aloha.host[*].iaTime exponential(7s)
config network Aloha
config Aloha.numHosts 20
config Aloha.slotTime 0s
config Aloha.txRate 9.6kbps
config Aloha.host[*].pkLenBits 952b
config **.x "uniform(0m, 1000m)"
config **.y "uniform(0m, 1000m)"
config **.animationHoldTimeOnCollision 0s
config **.idleAnimationSpeed 1
config **.transmissionEdgeAnimationSpeed 1e-6
config **.midTransmissionAnimationSpeed 1e-1

vector 0 Aloha.server serverChannelState:vector ETV
attr enum IDLE=0,TRANSMISSION=1,COLLISION=2
attr recordingmode vector
attr source channelState
attr title "Channel state"
vector 1 Aloha.host[0] radioState:vector ETV
attr enum IDLE=0,TRANSMIT=1
attr recordingmode vector
attr source state
attr title "Radio state"
vector 2 Aloha.host[1] radioState:vector ETV
attr enum IDLE=0,TRANSMIT=1
attr recordingmode vector
attr source state
attr title "Radio state"
vector 3 Aloha.host[2] radioState:vector ETV
attr enum IDLE=0,TRANSMIT=1
attr recordingmode vector
attr source state
attr title "Radio state"
vector 4 Aloha.host[3] radioState:vector ETV
attr enum IDLE=0,TRANSMIT=1
attr recordingmode vector
attr source state
attr title "Radio state"
vector 5 Aloha.host[4] radioState:vector ETV
attr enum IDLE=0,TRANSMIT=1
attr recordingmode vector
attr source state
attr title "Radio state"
vector 6 Aloha.host[5] radioState:vector ETV
attr enum IDLE=0,TRANSMIT=1
attr recordingmode vector
attr source state
attr title "Radio state"
vector 7 Aloha.host[6] radioState:vector ETV
attr enum IDLE=0,TRANSMIT=1
attr recordingmode vector
attr source state
attr title "Radio state"
vector 8 Aloha.host[7] radioState:vector ETV
attr enum IDLE=0,TRANSMIT=1
attr recordingmode vector
attr source state
attr title "Radio state"
vector 9 Aloha.host[8] radioState:vector ETV
attr enum IDLE=0,TRANSMIT=1
attr recordingmode vector
attr source state
attr title "Radio state"
vector 10 Aloha.host[9] radioState:vector ETV
attr enum IDLE=0,TRANSMIT=1
attr recordingmode vector
attr source state
attr title "Radio state"
vector 11 Aloha.host[10] radioState:vector ETV
attr enum IDLE=0,TRANSMIT=1
attr recordingmode vector
attr source state
attr title "Radio state"
vector 12 Aloha.host[11] radioState:vector ETV
attr enum IDLE=0,TRANSMIT=1
attr recordingmode vector
attr source state
attr title "Radio state"
vector 13 Aloha.host[12] radioState:vector ETV
attr enum IDLE=0,TRANSMIT=1
attr recordingmode vector
attr source state
attr title "Radio state"
vector 14 Aloha.host[13] radioState:vector ETV
attr enum IDLE=0,TRANSMIT=1
attr recordingmode vector
attr source state
attr title "Radio state"
vector 15 Aloha.host[14] radioState:vector ETV
attr enum IDLE=0,TRANSMIT=1
attr recordingmode vector
attr source state
attr title "Radio state"
vector 16 Aloha.host[15] radioState:vector ETV
attr enum IDLE=0,TRANSMIT=1
attr recordingmode vector
attr source state
attr title "Radio state"
vector 17 Aloha.host[16] radioState:vector ETV
attr enum IDLE=0,TRANSMIT=1
attr recordingmode vector
attr source state
attr title "Radio state"
vector 18 Aloha.host[17] radioState:vector ETV
attr enum IDLE=0,TRANSMIT=1
attr recordingmode vector
attr source state
attr title "Radio state"
vector 19 Aloha.host[18] radioState:vector ETV
attr enum IDLE=0,TRANSMIT=1
attr recordingmode vector
attr source state
attr title "Radio state"
vector 20 Aloha.host[19] radioState:vector ETV
attr enum IDLE=0,TRANSMIT=1
attr recordingmode vector
attr source state
attr title "Radio state"
vector 21 Aloha.server channelUtilizationVector:vector ETV
attr interpolationmode linear
attr recordingmode vector
attr source timeavg(receive)
attr title "channel utilization evolution"
0	0	0	0
0	2	0.11741848948	1
0	4	0.216585156147	0
0	6	0.283452815303	1
0	8	0.38261948197	0
0	10	0.571199393895	1
0	12	0.645926201367	2
0	15	0.745092868034	0
0	17	1.421430073324	1
0	19	1.520596739991	0
0	21	1.926553018554	1
0	23	2.025719685221	0
0	25	2.589097645152	1
0	27	2.688264311819	0
0	29	2.967732242391	1
0	31	3.066898909058	0
0	33	3.444972850863	1
0	35	3.54413951753	0
0	37	3.591294717868	1
0	39	3.690461384535	0
0	41	3.841070606131	1
0	43	3.940237272798	0
0	45	4.16623583402	1
0	47	4.265402500687	0
0	49	4.345288029252	1
0	51	4.444454695919	0
0	53	4.494740976167	1
0	55	4.593907642834	0
0	57	4.77568796795	1
0	59	4.874854634617	0
0	61	4.981292217012	1
0	63	5.080458883679	0
0	65	5.480330033149	1
0	67	5.579496699816	0
0	69	5.585217727189	1
0	71	5.597775245298	2
0	74	5.696941911965	0
0	76	5.754251246161	1
0	78	5.853417912828	0
0	80	6.316701116879	1
0	82	6.415867783546	0
0	84	7.005274369459	1
0	86	7.068727727015	2
0	89	7.167894393682	0
0	91	7.44295600551	1
0	93	7.542122672177	0
0	95	7.671485571683	1
0	97	7.77065223835	0
0	99	8.120180036494	1
0	101	8.200475820823	2
0	104	8.29964248749	0
0	106	8.699393004031	1
0	108	8.798559670698	0
0	110	9.122782199303	1
0	112	9.174809850341	2
0	115	9.273976517008	0
0	117	9.542658939647	1
0	119	9.641825606314	0
0	121	9.793691367089	1
0	123	9.885401101687	2
0	126	9.984567768354	0
0	128	10.019860739352	1
0	130	10.119027406019	0
0	132	10.545954969912	1
0	134	10.645121636579	0
0	136	11.240664883137	1
0	138	11.243011059816	2
0	141	11.342177726483	0
0	143	12.064468019326	1
0	145	12.163634685993	0
0	147	12.801947784434	1
0	149	12.901114451101	0
0	151	13.385972946442	1
0	153	13.485139613109	0
0	155	13.588803114119	1
0	157	13.67061327389	2
0	160	13.769779940557	0
0	162	13.772470451806	1
0	164	13.827190643474	2
0	167	13.926357310141	0
0	169	14.438986258574	1
0	171	14.538152925241	0
0	173	14.775342212975	1
0	175	14.874508879642	0
0	177	14.938298774593	1
0	179	15.03746544126	0
0	181	15.97839047931	1
0	183	16.077557145977	0
0	185	16.316681826793	1
0	187	16.41584849346	0
0	189	16.933970792736	1
0	191	17.033137459403	0
0	193	17.461626576548	1
0	195	17.473413070686	2
0	198	17.572579737353	0
0	200	17.946308992572	1
0	202	18.045475659239	0
0	204	18.157322405708	1
0	206	18.197505897644	2
0	209	18.296672564311	0
0	211	18.43027437217	1
0	213	18.529441038837	0
0	215	18.632966950822	1
0	217	18.732133617489	0
0	219	19.464078290061	1
0	221	19.563244956728	0
0	223	20.437928574473	1
0	225	20.53709524114	0
0	227	21.091393272813	1
0	229	21.094350484842	2
0	232	21.193517151509	0
0	234	21.232377368286	1
0	236	21.331544034953	0
0	238	21.523708389417	1
0	240	21.622875056084	0
0	242	21.642977017588	1
0	244	21.742143684255	0
0	246	21.958234033512	1
0	248	21.99485484186	2
0	250	22.016320434507	2
0	254	22.115487101174	0
0	256	23.390331545413	1
0	258	23.48949821208	0
0	260	23.499792774603	1
0	262	23.598209395645	2
0	265	23.697376062312	0
0	267	24.101704315533	1
0	269	24.2008709822	0
0	271	24.317358466459	1
0	273	24.416525133126	0
0	275	24.481734441529	1
0	277	24.580901108196	0
0	279	25.026539188701	1
0	281	25.125705855368	0
0	283	25.463585273544	1
0	285	25.525998922896	2
0	288	25.625165589563	0
0	290	25.757953149858	1
0	292	25.857119816525	0
0	294	26.047279297779	1
0	296	26.146445964446	0
0	298	26.708785548336	1
0	300	26.807952215003	0
0	302	28.176508824173	1
0	304	28.27567549084	0
0	306	29.037169192621	1
0	308	29.136335859288	0
0	310	29.282596843239	1
0	312	29.293350734161	2
0	315	29.392517400828	0
0	317	29.58521299087	1
0	319	29.684379657537	0
0	321	29.805981446266	1
0	323	29.905148112933	0
0	325	30.203982809164	1
0	327	30.303149475831	0
0	329	30.522284060758	1
0	331	30.621450727425	0
0	333	31.362827984567	1
0	335	31.430621180042	2
0	338	31.529787846709	0
0	340	31.556205650563	1
0	342	31.65537231723	0
0	344	32.18441141911	1
0	346	32.283578085777	0
0	348	32.611044973436	1
0	350	32.67312672737	2
0	353	32.772293394037	0
0	355	33.042471308354	1
0	357	33.141637975021	0
0	359	33.247833900348	1
0	361	33.347000567015	0
0	363	33.424649454504	1
0	365	33.523816121171	0
0	367	33.882520554183	1
0	369	33.98168722085	0
0	371	34.010688924738	1
0	373	34.109855591405	0
0	375	34.878867807174	1
0	377	34.978034473841	0
0	379	34.991323182859	1
0	381	35.090489849526	0
0	383	35.135189896658	1
0	385	35.234356563325	0
0	387	35.67041578067	1
0	389	35.769582447337	0
0	391	35.988669107319	1
0	393	36.087835773986	0
0	395	36.320430836285	1
0	397	36.419597502952	0
0	399	37.480200121495	1
0	401	37.521472226749	2
0	404	37.620638893416	0
0	406	37.719739609826	1
0	408	37.779962984389	2
0	411	37.879129651056	0
0	413	38.307408250048	1
0	415	38.406574916715	0
0	417	38.566607862299	1
0	419	38.665774528966	0
0	421	38.715958577296	1
0	423	38.750885442692	2
0	426	38.850052109359	0
0	428	39.723508633555	1
0	430	39.822675300222	0
0	432	39.946217059362	1
0	434	40.045383726029	0
0	436	40.148396784473	1
0	438	40.24756345114	0
0	440	40.671258100096	1
0	442	40.676847828813	2
0	445	40.77601449548	0
0	447	41.287187314379	1
0	449	41.386353981046	0
0	451	41.533333797258	1
0	453	41.632500463925	0
0	455	42.028484344993	1
0	457	42.12765101166	0
0	459	42.196960420152	1
0	461	42.296127086819	0
0	463	42.711376094164	1
0	465	42.810542760831	0
0	467	43.015146779505	1
0	469	43.114313446172	0
0	471	43.487667815602	1
0	473	43.586834482269	0
0	475	43.781440516446	1
0	477	43.880607183113	0
0	479	43.901321336463	1
0	481	44.00048800313	0
0	483	44.202522952164	1
0	485	44.266939908723	2
0	488	44.36610657539	0
0	490	44.818176787643	1
0	492	44.87447899337	2
0	495	44.973645660037	0
0	497	45.301393191219	1
0	499	45.400559857886	0
0	501	46.36949376912	1
0	503	46.468660435787	0
0	505	46.587441183668	1
0	507	46.686607850335	0
0	509	47.170072956873	1
0	511	47.229834634589	2
0	514	47.329001301256	0
0	516	47.558990402955	1
0	518	47.658157069622	0
0	520	47.770592423697	1
0	522	47.869759090364	0
0	524	48.129216268982	1
0	526	48.228382935649	0
0	528	48.444532948888	1
0	530	48.543699615555	0
0	532	48.694114548743	1
0	534	48.79328121541	0
0	536	49.945169931212	1
0	538	49.99043886831	2
0	541	50.089605534977	0
0	543	50.225839778948	1
0	545	50.325006445615	0
0	547	50.395468484692	1
0	549	50.494635151359	0
0	551	51.239777546279	1
0	553	51.338944212946	0
0	555	51.535389703969	1
0	557	51.634556370636	0
0	559	51.931272011402	1
0	561	51.981075215633	2
0	564	52.0802418823	0
0	566	52.099938691259	1
0	568	52.117400216714	2
0	571	52.216566883381	0
0	573	52.519961922176	1
0	575	52.619128588843	0
0	577	52.826740590975	1
0	579	52.925907257642	0
0	581	53.167604637765	1
0	583	53.266771304432	0
0	585	53.509967119066	1
0	587	53.545892393046	2
0	590	53.645059059713	0
0	592	54.407995929744	1
0	594	54.420991602979	2
0	597	54.520158269646	0
0	599	55.425093185977	1
0	601	55.524259852644	0
0	603	55.643534125996	1
0	605	55.716934695802	2
0	608	55.816101362469	0
0	610	55.819879825822	1
0	612	55.919046492489	0
0	614	56.006474920609	1
0	616	56.103221602462	2
0	619	56.202388269129	0
0	621	56.722023451714	1
0	623	56.778356229825	2
0	626	56.877522896492	0
0	628	57.177508704478	1
0	630	57.276675371145	0
0	632	57.979481581894	1
0	634	58.078648248561	0
0	636	58.191777156325	1
0	638	58.290943822992	0
0	640	58.350555402808	1
0	642	58.449722069475	0
0	644	58.97155657471	1
0	646	59.070723241377	0
0	648	59.174819794657	1
0	650	59.221074830598	2
0	652	59.251090367003	2
0	656	59.35025703367	0
0	658	59.922368216637	1
0	660	60.021534883304	0
0	662	60.175799996358	1
0	664	60.274966663025	0
0	666	61.07999311106	1
0	668	61.179159777727	0
0	670	61.555765695366	1
0	672	61.654932362033	0
0	674	62.19908652661	1
0	676	62.298253193277	0
0	678	63.343614675379	1
0	680	63.442781342046	0
0	682	64.176218272042	1
0	684	64.275384938709	0
0	686	64.322514522687	1
0	688	64.421681189354	0
0	690	64.618108668754	1
0	692	64.717275335421	0
0	694	65.217081528406	1
0	696	65.316248195073	0
0	698	65.521177728094	1
0	700	65.620344394761	0
0	702	66.183376876663	1
0	704	66.28254354333	0
0	706	66.494967367975	1
0	708	66.594134034642	0
0	710	66.676893732344	1
0	712	66.776060399011	0
0	714	68.492383794718	1
0	716	68.591550461385	0
0	718	69.379735018014	1
0	720	69.478901684681	0
0	722	69.481352383109	1
0	724	69.580519049776	0
0	726	70.067061671655	1
0	728	70.166228338322	0
0	730	70.776714873109	1
0	732	70.875881539776	0
0	734	71.068046095015	1
0	736	71.167212761682	0
0	738	71.475081685327	1
0	740	71.574248351994	0
0	742	71.614071355829	1
0	744	71.713238022496	0
0	746	71.926752225483	1
0	748	72.02591889215	0
0	750	72.174610162629	1
0	752	72.273776829296	0
0	754	72.545169868663	1
0	756	72.64433653533	0
0	758	73.011854376524	1
0	760	73.111021043191	0
0	762	73.407682390946	1
0	764	73.506849057613	0
0	766	73.777025712508	1
0	768	73.876192379175	0
0	770	74.509435096939	1
0	772	74.608601763606	0
0	774	74.649348753713	1
0	776	74.74851542038	0
0	778	74.933620243059	1
0	780	74.999467112342	2
0	783	75.098633779009	0
0	785	75.710294437876	1
0	787	75.809461104543	0
0	789	75.854275687572	1
0	791	75.953442354239	0
0	793	76.376307831998	1
0	795	76.454682670391	2
0	798	76.553849337058	0
0	800	76.848857578408	1
0	802	76.948024245075	0
0	804	77.130019291325	1
0	806	77.229185957992	0
0	808	77.39771598431	1
0	810	77.496882650977	0
0	812	77.891073623195	1
0	814	77.975986288235	2
0	817	78.075152954902	0
0	819	79.0971720368	1
0	821	79.196338703467	0
0	823	79.74433212349	1
0	825	79.843498790157	0
0	827	79.948867373692	1
0	829	80.048034040359	0
0	831	80.08042855717	1
0	833	80.179595223837	0
0	835	80.362742945294	1
0	837	80.461909611961	0
0	839	80.519726545579	1
0	841	80.593000217867	2
0	843	80.608151627374	2
0	846	80.685093262619	2
0	850	80.784259929286	0
0	852	81.071446388488	1
0	854	81.170613055155	0
0	856	84.28150325639	1
0	858	84.380669923057	0
0	860	84.576491664807	1
0	862	84.675658331474	0
0	864	84.81070703636	1
0	866	84.909873703027	0
0	868	85.027168673565	1
0	870	85.027792033915	2
0	873	85.126958700582	0
0	875	85.148214092446	1
0	877	85.247380759113	0
0	879	85.37054643399	1
0	881	85.469713100657	0
0	883	85.799528661616	1
0	885	85.898695328283	0
0	887	85.928259660707	1
0	889	86.027426327374	0
0	891	86.226250461298	1
0	893	86.325417127965	0
0	895	86.535885004404	1
0	897	86.635051671071	0
0	899	86.886686925947	1
0	901	86.985853592614	0
0	903	87.51656086362	1
0	905	87.615727530287	0
0	907	87.739560472808	1
0	909	87.838727139475	0
0	911	87.905163116236	1
0	913	88.004329782903	0
0	915	88.11236194805	1
0	917	88.211528614717	0
0	919	88.328983089377	1
0	921	88.428149756044	0
0	923	88.628138688139	1
0	925	88.727305354806	0
0	927	88.953900637011	1
0	929	89.053067303678	0
0	931	89.078443498238	1
0	933	89.177610164905	0
0	935	89.588781837769	1
0	937	89.687948504436	0
0	939	90.481764811351	1
0	941	90.518277256817	2
0	944	90.617443923484	0
0	946	90.873626358829	1
0	948	90.972793025496	0
0	950	91.084292910831	1
0	952	91.183459577498	0
0	954	91.597483579773	1
0	956	91.69665024644	0
0	958	91.707635607401	1
0	960	91.806802274068	0
0	962	91.880186768145	1
0	964	91.979353434812	0
0	966	92.192567420566	1
0	968	92.291734087233	0
0	970	92.955382115734	1
0	972	93.054548782401	0
0	974	94.228831976151	1
0	976	94.327998642818	0
0	978	94.707796044839	1
0	980	94.806962711506	0
0	982	95.011312563753	1
0	984	95.11047923042	0
0	986	95.593725400484	1
0	988	95.684729143489	2
0	991	95.783895810156	0
0	993	95.849982094599	1
0	995	95.949148761266	0
0	997	96.565383333047	1
0	999	96.603783107342	2
0	1002	96.702949774009	0
0	1004	96.781373415983	1
0	1006	96.88054008265	0
0	1008	97.245060322482	1
0	1010	97.307582582009	2
0	1013	97.406749248676	0
0	1015	97.497056516436	1
0	1017	97.596223183103	0
0	1019	98.331174281653	1
0	1021	98.423072482209	2
0	1024	98.522239148876	0
0	1026	99.009859003999	1
0	1028	99.109025670666	0
0	1030	99.254937365483	1
0	1032	99.35410403215	0
0	1034	99.92697434606	1
0	1036	100.026141012727	0
0	1038	100.192656081046	1
0	1040	100.291822747713	0
0	1042	100.567579956417	1
0	1044	100.594220574937	2
0	1047	100.693387241604	0
0	1049	100.905006827122	1
0	1051	101.000370990472	2
0	1054	101.099537657139	0
0	1056	101.204573777117	1
0	1058	101.227457755169	2
0	1061	101.326624421836	0
0	1063	102.287501694132	1
0	1065	102.329353165034	2
0	1068	102.428519831701	0
0	1070	102.675950905492	1
0	1072	102.775117572159	0
0	1074	103.887939948811	1
0	1076	103.987106615478	0
0	1078	104.510187054847	1
0	1080	104.53934484	2
0	1082	104.548165673966	2
0	1085	104.635165704264	2
0	1089	104.734332370931	0
0	1091	105.422870575195	1
0	1093	105.522037241862	0
0	1095	105.620467825104	1
0	1097	105.719634491771	0
0	1099	105.727944476459	1
0	1101	105.827111143126	0
0	1103	105.830889605652	1
0	1105	105.930056272319	0
0	1107	106.113005077832	1
0	1109	106.212171744499	0
0	1111	106.221170167906	1
0	1113	106.256785138844	2
0	1115	106.269535455746	2
0	1119	106.368702122413	0
0	1121	106.944078943971	1
0	1123	107.043245610638	0
0	1125	107.105988400656	1
0	1127	107.205155067323	0
0	1129	107.229360623739	1
0	1131	107.328527290406	0
0	1133	108.233425746796	1
0	1135	108.332592413463	0
0	1137	108.61502794211	1
0	1139	108.714194608777	0
0	1141	108.861455734448	1
0	1143	108.960622401115	0
0	1145	109.597456825612	1
0	1147	109.696623492279	0
0	1149	110.111073519672	1
0	1151	110.161770462914	2
0	1154	110.260937129581	0
0	1156	110.501193231897	1
0	1158	110.600359898564	0
0	1160	110.865727397479	1
0	1162	110.964894064146	0
0	1164	111.13055855387	1
0	1166	111.229725220537	0
0	1168	111.479698846537	1
0	1170	111.52012290028	2
0	1173	111.619289566947	0
0	1175	111.738890143989	1
0	1177	111.838056810656	0
0	1179	112.014180183974	1
0	1181	112.113346850641	0
0	1183	112.149087833272	1
0	1185	112.248254499939	0
0	1187	112.326852956952	1
0	1189	112.348408706621	2
0	1192	112.432995643477	2
0	1194	112.444716571491	2
0	1198	112.543883238158	0
0	1200	112.728712195955	1
0	1202	112.827878862622	0
0	1204	112.957896546456	1
0	1206	113.047703944974	2
0	1209	113.146870611641	0
0	1211	113.689791937192	1
0	1213	113.763465523557	2
0	1216	113.862632190224	0
0	1218	114.041909996716	1
0	1220	114.141076663383	0
0	1222	114.491105830641	1
0	1224	114.590272497308	0
0	1226	115.121419722041	1
0	1228	115.220586388708	0
0	1230	115.521543490851	1
0	1232	115.620710157518	0
0	1234	115.838460094127	1
0	1236	115.937626760794	0
0	1238	116.477663057537	1
0	1240	116.544774977268	2
0	1243	116.643941643935	0
0	1245	117.670202493314	1
0	1247	117.769369159981	0
0	1249	118.046350726527	1
0	1251	118.145517393194	0
0	1253	118.151578136385	1
0	1255	118.250744803052	0
0	1257	118.732094818382	1
0	1259	118.809880287845	2
0	1262	118.909046954512	0
0	1264	119.996158656737	1
0	1266	120.095325323404	0
0	1268	120.295653242491	1
0	1270	120.394819909158	0
0	1272	120.545512649579	1
0	1274	120.644679316246	0
0	1276	120.818856579322	1
0	1278	120.918023245989	0
0	1280	121.279579245347	1
0	1282	121.378745912014	0
0	1284	121.519443804381	1
0	1286	121.572971846562	2
0	1289	121.672138513229	0
0	1291	121.692920024646	1
0	1293	121.792086691313	0
0	1295	121.853705379092	1
0	1297	121.871926949193	2
0	1299	121.879215712212	2
0	1303	121.978382378879	0
0	1305	122.116879182904	1
0	1307	122.216045849571	0
0	1309	122.376341028932	1
0	1311	122.475507695599	0
0	1313	123.021654850863	1
0	1315	123.093825938565	2
0	1318	123.192992605232	0
0	1320	124.003365819141	1
0	1322	124.102532485808	0
0	1324	125.284992168972	1
0	1326	125.384158835639	0
0	1328	125.401918561675	1
0	1330	125.501085228342	0
0	1332	125.509034731103	1
0	1334	125.60820139777	0
0	1336	126.610476291865	1
0	1338	126.709642958532	0
0	1340	128.332127909554	1
0	1342	128.431294576221	0
0	1344	129.316994078993	1
0	1346	129.41616074566	0
0	1348	129.701114539932	1
0	1350	129.744735270623	2
0	1353	129.84390193729	0
0	1355	129.923211832876	1
0	1357	130.022378499543	0
0	1359	130.199225612983	1
0	1361	130.29839227965	0
0	1363	130.502757103419	1
0	1365	130.601923770086	0
0	1367	131.620350774433	1
0	1369	131.7195174411	0
0	1371	131.824625548705	1
0	1373	131.923792215372	0
0	1375	132.13228859337	1
0	1377	132.231455260037	0
0	1379	132.514978895251	1
0	1381	132.614145561918	0
0	1383	132.639938411597	1
0	1385	132.702584870121	2
0	1388	132.801751536788	0
0	1390	132.916781549861	1
0	1392	133.015948216528	0
0	1394	133.02426334222	1
0	1396	133.123430008887	0
0	1398	134.456785756241	1
0	1400	134.488412937888	2
0	1402	134.550528096072	2
0	1406	134.649694762739	0
0	1408	134.659176900609	1
0	1410	134.758343567276	0
0	1412	134.878288711895	1
0	1414	134.977455378562	0
0	1416	136.101771994372	1
0	1418	136.165066737414	2
0	1420	136.169976573167	2
0	1424	136.269143239834	0
0	1426	136.340463386098	1
0	1428	136.439630052765	0
0	1430	136.938428949163	1
0	1432	137.03759561583	0
0	1434	137.778690368844	1
0	1436	137.877857035511	0
0	1438	137.937419957666	1
0	1440	138.036586624333	0
0	1442	138.204413732746	1
0	1444	138.303580399413	0
0	1446	138.56400503877	1
0	1448	138.663171705437	0
0	1450	138.682005010769	1
0	1452	138.781171677436	0
0	1454	139.757715796784	1
0	1456	139.856882463451	0
0	1458	139.905252907218	1
0	1460	140.004419573885	0
0	1462	140.219721991346	1
0	1464	140.318888658013	0
0	1466	141.031585710784	1
0	1468	141.130752377451	0
0	1470	142.697705538731	1
0	1472	142.796872205398	0
0	1474	144.011385389328	1
0	1476	144.110552055995	0
0	1478	144.270980911994	1
0	1480	144.370147578661	0
0	1482	144.488112475793	1
0	1484	144.58727914246	0
0	1486	144.869163773345	1
0	1488	144.968330440012	0
0	1490	145.311501532207	1
0	1492	145.410668198874	0
0	1494	145.530484400861	1
0	1496	145.629651067528	0
0	1498	146.342414231379	1
0	1500	146.34351646407	2
0	1503	146.442683130737	0
0	1505	147.1994992784	1
0	1507	147.231531288556	2
0	1510	147.330697955223	0
0	1512	148.49711572093	1
0	1514	148.596282387597	0
0	1516	148.764186070518	1
0	1518	148.859334875961	2
0	1521	148.891477801715	2
0	1524	148.990644468382	0
0	1526	149.104463800422	1
0	1528	149.203630467089	0
0	1530	149.247888687949	1
0	1532	149.347055354616	0
0	1534	149.433490751144	1
0	1536	149.532657417811	0
0	1538	150.270097497402	1
0	1540	150.369264164069	0
0	1542	150.440534789667	1
0	1544	150.539701456334	0
0	1546	150.6976788056	1
0	1548	150.796845472267	0
0	1550	151.153709768751	1
0	1552	151.241535642484	2
0	1555	151.340702309151	0
0	1557	151.537970929482	1
0	1559	151.54221667376	2
0	1561	151.556568789114	2
0	1565	151.655735455781	0
0	1567	152.081344129525	1
0	1569	152.103030546738	2
0	1572	152.202197213405	0
0	1574	152.618701915267	1
0	1576	152.717868581934	0
0	1578	153.588267364105	1
0	1580	153.687434030772	0
0	1582	154.277655207358	1
0	1584	154.376821874025	0
0	1586	154.581795360976	1
0	1588	154.680962027643	0
0	1590	155.113531853263	1
0	1592	155.21269851993	0
0	1594	155.495945846863	1
0	1596	155.59511251353	0
0	1598	156.220884055451	1
0	1600	156.320050722118	0
0	1602	156.875294108743	1
0	1604	156.97446077541	0
0	1606	157.51358252474	1
0	1608	157.612749191407	0
0	1610	158.410772918408	1
0	1612	158.502015429511	2
0	1615	158.601182096178	0
0	1617	158.705557541634	1
0	1619	158.804724208301	0
0	1621	159.244072806124	1
0	1623	159.343239472791	0
0	1625	159.626947121271	1
0	1627	159.692692575108	2
0	1630	159.791859241775	0
0	1632	159.898001851007	1
0	1634	159.997168517674	0
0	1636	160.332456307504	1
0	1638	160.431622974171	0
0	1640	160.502320912037	1
0	1642	160.601487578704	0
0	1644	161.042200119572	1
0	1646	161.141366786239	0
0	1648	161.835090424914	1
0	1650	161.934257091581	0
0	1652	162.85254754233	1
0	1654	162.951714208997	0
0	1656	163.224058008881	1
0	1658	163.323224675548	0
0	1660	164.695546529366	1
0	1662	164.794713196033	0
0	1664	164.946823765334	1
0	1666	165.045990432001	0
0	1668	165.494836244223	1
0	1670	165.59400291089	0
0	1672	166.203166898097	1
0	1674	166.302333564764	0
0	1676	166.698331419133	1
0	1678	166.7974980858	0
0	1680	166.998038249449	1
0	1682	167.005995888479	2
0	1685	167.105162555146	0
0	1687	167.428456426683	1
0	1689	167.430209655782	2
0	1692	167.529376322449	0
0	1694	167.861682369592	1
0	1696	167.885230875326	2
0	1699	167.984397541993	0
0	1701	168.011926071315	1
0	1703	168.111092737982	0
0	1705	168.144878561676	1
0	1707	168.244045228343	0
0	1709	168.335737683212	1
0	1711	168.434904349879	0
0	1713	168.666768888202	1
0	1715	168.765935554869	0
0	1717	168.991251931542	1
0	1719	169.090418598209	0
0	1721	169.206613165199	1
0	1723	169.210184357598	2
0	1725	169.25037922954	2
0	1729	169.349545896207	0
0	1731	169.590717690974	1
0	1733	169.689884357641	0
0	1735	169.793202979389	1
0	1737	169.892369646056	0
0	1739	169.932364874224	1
0	1741	170.031531540891	0
0	1743	170.191765843607	1
0	1745	170.230065234333	2
0	1748	170.329231901	0
0	1750	170.697182421281	1
0	1752	170.796349087948	0
0	1754	170.905060123923	1
0	1756	171.00422679059	0
0	1758	171.182897705378	1
0	1760	171.282064372045	0
0	1762	171.551144536887	1
0	1764	171.650311203554	0
0	1766	171.734262473326	1
0	1768	171.833429139993	0
0	1770	171.866402451606	1
0	1772	171.965569118273	0
0	1774	172.227313119379	1
0	1776	172.241717294802	2
0	1779	172.340883961469	0
0	1781	172.646397928928	1
0	1783	172.717154352668	2
0	1785	172.72385457985	2
0	1788	172.807334077586	2
0	1792	172.906500744253	0
0	1794	173.094657129242	1
0	1796	173.193823795909	0
0	1798	173.272019749276	1
0	1800	173.306443352929	2
0	1803	173.405610019596	0
0	1805	173.554208735248	1
0	1807	173.653375401915	0
0	1809	173.945302926903	1
0	1811	174.031951159777	2
0	1814	174.121830021081	2
0	1817	174.220996687748	0
0	1819	174.317872189642	1
0	1821	174.417038856309	0
0	1823	174.489797975287	1
0	1825	174.588964641954	0
0	1827	174.611077699148	1
0	1829	174.710244365815	0
0	1831	175.032002507473	1
0	1833	175.128507140573	2
0	1836	175.22767380724	0
0	1838	175.706779287652	1
0	1840	175.805945954319	0
0	1842	176.203602801568	1
0	1844	176.302769468235	0
0	1846	176.562556084523	1
0	1848	176.66172275119	0
0	1850	177.577983306584	1
0	1852	177.677149973251	0
0	1854	177.742008130808	1
0	1856	177.841174797475	0
0	1858	178.062242182455	1
0	1860	178.161408849122	0
0	1862	179.030930225276	1
0	1864	179.130096891943	0
0	1866	179.218882517118	1
0	1868	179.318049183785	0
0	1870	179.712189482142	1
0	1872	179.811356148809	0
0	1874	180.042288513616	1
0	1876	180.141455180283	0
0	1878	181.538213171223	1
0	1880	181.63737983789	0
0	1882	181.730750694592	1
0	1884	181.758754022722	2
0	1887	181.857920689389	0
0	1889	183.153222365804	1
0	1891	183.252389032471	0
0	1893	183.880711248033	1
0	1895	183.9798779147	0
0	1897	184.358946685744	1
0	1899	184.418139602928	2
0	1902	184.517306269595	0
0	1904	184.550097640938	1
0	1906	184.627321592897	2
0	1909	184.726488259564	0
0	1911	185.633515390805	1
0	1913	185.732682057472	0
0	1915	186.485041830208	1
0	1917	186.584208496875	0
0	1919	186.924119781785	1
0	1921	187.023286448452	0
0	1923	187.258482007292	1
0	1925	187.357648673959	0
0	1927	188.149753337007	1
0	1929	188.248920003674	0
0	1931	188.304320802504	1
0	1933	188.403487469171	0
0	1935	188.522283504455	1
0	1937	188.621450171122	0
0	1939	188.77718867097	1
0	1941	188.799605564668	2
0	1944	188.898772231335	0
0	1946	189.697544588117	1
0	1948	189.744883054162	2
0	1950	189.778688321499	2
0	1954	189.877854988166	0
0	1956	190.347657972762	1
0	1958	190.446824639429	0
0	1960	190.520720846447	1
0	1962	190.619887513114	0
0	1964	191.075512291321	1
0	1966	191.174678957988	0
0	1968	191.295849873167	1
0	1970	191.395016539834	0
0	1972	192.195926193194	1
0	1974	192.295092859861	0
0	1976	192.313289099498	1
0	1978	192.369350095123	2
0	1981	192.46851676179	0
0	1983	192.503103862441	1
0	1985	192.602270529108	0
0	1987	193.266381741802	1
0	1989	193.327444221717	2
0	1992	193.426610888384	0
0	1994	194.270852376844	1
0	1996	194.370019043511	0
0	1998	194.413715787015	1
0	2000	194.512882453682	0
0	2002	194.692419172733	1
0	2004	194.7915858394	0
0	2006	194.827449818136	1
0	2008	194.926616484803	0
0	2010	194.989836512562	1
0	2012	195.089003179229	0
0	2014	195.715088597729	1
0	2016	195.814255264396	0
0	2018	195.822045405765	1
0	2020	195.921212072432	0
0	2022	196.229045623259	1
0	2024	196.328212289926	0
0	2026	196.355151514429	1
0	2028	196.454318181096	0
0	2030	196.483314766462	1
0	2032	196.582481433129	0
0	2034	196.773246349375	1
0	2036	196.872413016042	0
0	2038	196.913843675342	1
0	2040	197.013010342009	0
0	2042	197.150949262494	1
0	2044	197.217007400252	2
0	2047	197.316174066919	0
0	2049	197.34803838021	1
0	2051	197.447205046877	0
0	2053	197.704024632398	1
0	2055	197.803191299065	0
0	2057	197.871531209916	1
0	2059	197.970697876583	0
0	2061	197.986833080737	1
0	2063	198.085999747404	0
0	2065	198.647315681782	1
0	2067	198.746482348449	0
0	2069	198.8919345774	1
0	2071	198.991101244067	0
0	2073	199.158704567305	1
0	2075	199.257871233972	0
0	2077	200.600966724733	1
0	2079	200.7001333914	0
0	2081	200.700980112201	1
0	2083	200.800146778868	0
0	2085	200.943696517377	1
0	2087	201.042863184044	0
0	2089	201.224739901074	1
0	2091	201.323906567741	0
0	2093	201.50151414625	1
0	2095	201.600680812917	0
0	2097	202.086576504004	1
0	2099	202.185743170671	0
0	2101	202.251998003395	1
0	2103	202.287127610807	2
0	2106	202.386294277474	0
0	2108	202.639351041072	1
0	2110	202.679818734372	2
0	2113	202.778985401039	0
0	2115	203.303835990693	1
0	2117	203.40300265736	0
0	2119	204.090684611493	1
0	2121	204.18985127816	0
0	2123	204.7270785559	1
0	2125	204.826245222567	0
0	2127	205.730017332066	1
0	2129	205.829183998733	0
0	2131	206.222581053806	1
0	2133	206.321747720473	0
0	2135	206.706723698405	1
0	2137	206.805890365072	0
0	2139	207.031040156019	1
0	2141	207.130206822686	0
0	2143	207.539236656564	1
0	2145	207.59577629522	2
0	2147	207.635000322087	2
0	2151	207.734166988754	0
0	2153	207.76634234281	1
0	2155	207.775316878433	2
0	2158	207.8744835451	0
0	2160	208.039107249451	1
0	2162	208.138273916118	0
0	2164	208.146992582408	1
0	2166	208.246159249075	0
0	2168	208.550141457069	1
0	2170	208.649308123736	0
0	2172	208.672896750645	1
0	2174	208.772063417312	0
0	2176	209.772212627686	1
0	2178	209.871379294353	0