version 3
run PureAlohaExperiment-6-20260306-12:10:16-8840
attr configname PureAlohaExperiment
attr datetime 20260306-12:10:16
attr datetimef 20260306-121016
attr experiment PureAlohaExperiment
attr inifile omnetpp.ini
attr iterationvars "$numHosts=10, $iaMean=4"
attr iterationvarsd numHosts=10/iaMean=4
attr iterationvarsf numHosts=10,iaMean=4-
attr measurement "$numHosts=10, $iaMean=4"
attr network Aloha
attr processid 8840
attr repetition 0
attr replication #0
attr resultdir results
attr runnumber 6
attr seedset 6
itervar iaMean 4
itervar numHosts 10
config description "Channel utilization in the function of packet generation frequency"
config repeat 2
config sim-time-limit 90min
config Aloha.numHosts 10
config Aloha.host[*].iaTime exponential(4s)
config network Aloha
config Aloha.numHosts 20
config Aloha.slotTime 0s
config Aloha.txRate 9.6kbps
config Aloha.host[*].pkLenBits 952b
config **.x "uniform(0m, 1000m)"
config **.y "uniform(0m, 1000m)"
config **.animationHoldTimeOnCollision 0s
config **.idleAnimationSpeed 1
config **.transmissionEdgeAnimationSpeed 1e-6
config **.midTransmissionAnimationSpeed 1e-1

vector 0 Aloha.server serverChannelState:vector ETV
attr enum IDLE=0,TRANSMISSION=1,COLLISION=2
attr recordingmode vector
attr source channelState
attr title "Channel state"
vector 1 Aloha.host[0] radioState:vector ETV
attr enum IDLE=0,TRANSMIT=1
attr recordingmode vector
attr source state
attr title "Radio state"
vector 2 Aloha.host[1] radioState:vector ETV
attr enum IDLE=0,TRANSMIT=1
attr recordingmode vector
attr source state
attr title "Radio state"
vector 3 Aloha.host[2] radioState:vector ETV
attr enum IDLE=0,TRANSMIT=1
attr recordingmode vector
attr source state
attr title "Radio state"
vector 4 Aloha.host[3] radioState:vector ETV
attr enum IDLE=0,TRANSMIT=1
attr recordingmode vector
attr source state
attr title "Radio state"
vector 5 Aloha.host[4] radioState:vector ETV
attr enum IDLE=0,TRANSMIT=1
attr recordingmode vector
attr source state
attr title "Radio state"
vector 6 Aloha.host[5] radioState:vector ETV
attr enum IDLE=0,TRANSMIT=1
attr recordingmode vector
attr source state
attr title "Radio state"
vector 7 Aloha.host[6] radioState:vector ETV
attr enum IDLE=0,TRANSMIT=1
attr recordingmode vector
attr source state
attr title "Radio state"
vector 8 Aloha.host[7] radioState:vector ETV
attr enum IDLE=0,TRANSMIT=1
attr recordingmode vector
attr source state
attr title "Radio state"
vector 9 Aloha.host[8] radioState:vector ETV
attr enum IDLE=0,TRANSMIT=1
attr recordingmode vector
attr source state
attr title "Radio state"
vector 10 Aloha.host[9] radioState:vector ETV
attr enum IDLE=0,TRANSMIT=1
attr recordingmode vector
attr source state
attr title "Radio state"
vector 11 Aloha.server channelUtilizationVector:vector ETV
attr interpolationmode linear
attr recordingmode vector
attr source timeavg(receive)
attr title "channel utilization evolution"
0	0	0	0
0	2	0.676589032696	1
0	4	0.775755699363	0
0	6	1.096770095427	1
0	8	1.195936762094	0
0	10	1.977028102369	1
0	12	2.076194769036	0
0	14	2.919550284505	1
0	16	3.018716951172	0
0	18	3.459149587672	1
0	20	3.558316254339	0
0	22	3.758354150603	1
0	24	3.85752081727	0
0	26	4.146555091504	1
0	28	4.20848607265	2
0	31	4.307652739317	0
0	33	5.154187082649	1
0	35	5.253353749316	0
0	37	5.325441910978	1
0	39	5.424608577645	0
0	41	5.47741145067	1
0	43	5.576578117337	0
0	45	6.758972306462	1
0	47	6.858138973129	0
0	49	7.498084897155	1
0	51	7.557796384214	2
0	54	7.631799472099	2
0	57	7.730966138766	0
0	59	9.423997980122	1
0	61	9.523164646789	0
0	63	9.822732039225	1
0	65	9.906012157444	2
0	68	10.005178824111	0
0	70	10.329839467136	1
0	72	10.429006133803	0
0	74	10.649020077604	1
0	76	10.748186744271	0
0	78	11.189343134524	1
0	80	11.288509801191	0
0	82	11.821831686991	1
0	84	11.916854368223	2
0	87	12.01602103489	0
0	89	12.275629343618	1
0	91	12.342425302765	2
0	94	12.441591969432	0
0	96	13.06435679938	1
0	98	13.163523466047	0
0	100	13.356583324165	1
0	102	13.385515968226	2
0	105	13.484682634893	0
0	107	13.54327617745	1
0	109	13.642442844117	0
0	111	14.078651703101	1
0	113	14.146564130611	2
0	116	14.179824608036	2
0	119	14.278991274703	0
0	121	14.433990826249	1
0	123	14.506662274663	2
0	126	14.60582894133	0
0	128	14.861438186024	1
0	130	14.960604852691	0
0	132	15.713940044878	1
0	134	15.813106711545	0
0	136	16.64435142837	1
0	138	16.743518095037	0
0	140	17.434914167362	1
0	142	17.534080834029	0
0	144	18.511411509815	1
0	146	18.610578176482	0
0	148	18.695577128631	1
0	150	18.794743795298	0
0	152	19.411158767698	1
0	154	19.510325434365	0
0	156	20.398752458135	1
0	158	20.470114010154	2
0	161	20.569280676821	0
0	163	20.803148676536	1
0	165	20.902315343203	0
0	167	21.199261144999	1
0	169	21.298427811666	0
0	171	22.303564912415	1
0	173	22.402731579082	0
0	175	22.468585081653	1
0	177	22.56775174832	0
0	179	22.62733766369	1
0	181	22.726504330357	0
0	183	23.664509070963	1
0	185	23.76367573763	0
0	187	23.863526681002	1
0	189	23.962693347669	0
0	191	24.627571671748	1
0	193	24.662912981809	2
0	196	24.762079648476	0
0	198	25.189255371999	1
0	200	25.288422038666	0
0	202	25.928218568781	1
0	204	26.027385235448	0
0	206	27.299085270325	1
0	208	27.372651808338	2
0	211	27.471818475005	0
0	213	27.797328816284	1
0	215	27.896495482951	0
0	217	28.19836018197	1
0	219	28.297526848637	0
0	221	29.042690950327	1
0	223	29.141857616994	0
0	225	29.25341065254	1
0	227	29.289137316696	2
0	230	29.388303983363	0
0	232	29.877178824752	1
0	234	29.976345491419	0
0	236	30.291476219209	1
0	238	30.390642885876	0
0	240	30.591062021144	1
0	242	30.690228687811	0
0	244	30.734872997492	1
0	246	30.834039664159	0
0	248	30.979494732426	1
0	250	31.014253345108	2
0	253	31.094339254933	2
0	256	31.1935059216	0
0	258	31.324371490387	1
0	260	31.423538157054	0
0	262	32.866509631099	1
0	264	32.965676297766	0
0	266	34.334682079253	1
0	268	34.43384874592	0
0	270	34.622444074143	1
0	272	34.72161074081	0
0	274	34.850452281761	1
0	276	34.949618948428	0
0	278	35.243772890115	1
0	280	35.342939556782	0
0	282	35.668463150875	1
0	284	35.767629817542	0
0	286	35.769363692658	1
0	288	35.790242928816	2
0	291	35.889409595483	0
0	293	36.0008156159	1
0	295	36.099982282567	0
0	297	37.007474464984	1
0	299	37.106641131651	0
0	301	37.211980839366	1
0	303	37.311147506033	0
0	305	37.520116044581	1
0	307	37.619282711248	0
0	309	37.763844800276	1
0	311	37.863011466943	0
0	313	38.316595319522	1
0	315	38.415761986189	0
0	317	38.457754802859	1
0	319	38.457759955914	2
0	322	38.556926622581	0
0	324	38.780450439217	1
0	326	38.879617105884	0
0	328	38.953286749429	1
0	330	39.052453416096	0
0	332	39.877901781845	1
0	334	39.905675396026	2
0	337	40.004842062693	0
0	339	40.024269192228	1
0	341	40.123435858895	0
0	343	41.841534599417	1
0	345	41.940701266084	0
0	347	42.125836651989	1
0	349	42.225003318656	0
0	351	42.3989902752	1
0	353	42.414745647201	2
0	356	42.513912313868	0
0	358	42.605706662655	1
0	360	42.704873329322	0
0	362	42.870750920392	1
0	364	42.969917587059	0
0	366	43.190196625635	1
0	368	43.289363292302	0
0	370	43.502701668394	1
0	372	43.601868335061	0
0	374	45.578260398935	1
0	376	45.583349634121	2
0	379	45.682516300788	0
0	381	45.753968060121	1
0	383	45.853134726788	0
0	385	45.994384923205	1
0	387	46.093551589872	0
0	389	46.667615431985	1
0	391	46.766782098652	0
0	393	46.840655085276	1
0	395	46.939821751943	0
0	397	47.143002833925	1
0	399	47.242169500592	0
0	401	47.924244662412	1
0	403	48.023411329079	0
0	405	48.263312620653	1
0	407	48.36247928732	0
0	409	48.665330497937	1
0	411	48.764497164604	0
0	413	49.751934762853	1
0	415	49.85110142952	0
0	417	50.451006554081	1
0	419	50.550173220748	0
0	421	51.119517648528	1
0	423	51.218684315195	0
0	425	51.233963610333	1
0	427	51.333130277	0
0	429	51.957429431922	1
0	431	52.056596098589	0
0	433	52.184161895582	1
0	435	52.283328562249	0
0	437	52.29915307043	1
0	439	52.398319737097	0
0	441	52.96079442116	1
0	443	53.04399092562	2
0	446	53.143157592287	0
0	448	53.25438842758	1
0	450	53.280813810747	2
0	453	53.356966469711	2
0	456	53.456133136378	0
0	458	54.235436133077	1
0	460	54.334602799744	0
0	462	54.376995946394	1
0	464	54.402688834563	2
0	467	54.50185550123	0
0	469	54.976646720774	1
0	471	55.075813387441	0
0	473	55.457444816486	1
0	475	55.556611483153	0
0	477	55.737104217314	1
0	479	55.836270883981	0
0	481	56.072421439193	1
0	483	56.17158810586	0
0	485	56.27067270934	1
0	487	56.369839376007	0
0	489	56.739175008357	1
0	491	56.838341675024	0
0	493	56.952755148804	1
0	495	57.051921815471	0
0	497	57.787507806093	1
0	499	57.88667447276	0
0	501	57.99768801039	1
0	503	58.016654110212	2
0	505	58.034938777133	2
0	507	58.055697799638	2
0	512	58.154864466305	0
0	514	58.428924184677	1
0	516	58.528090851344	0
0	518	59.010024851548	1
0	520	59.088284424966	2
0	523	59.187451091633	0
0	525	60.350644899354	1
0	527	60.408852461278	2
0	530	60.508019127945	0
0	532	60.703446510517	1
0	534	60.802613177184	0
0	536	61.018224013163	1
0	538	61.075868737398	2
0	541	61.158024973562	2
0	544	61.257191640229	0
0	546	61.986664887183	1
0	548	62.08583155385	0
0	550	62.11973921418	1
0	552	62.218905880847	0
0	554	62.638202316295	1
0	556	62.737368982962	0
0	558	63.259198697807	1
0	560	63.358365364474	0
0	562	63.40397252503	1
0	564	63.493242406539	2
0	567	63.592409073206	0
0	569	64.001009179213	1
0	571	64.10017584588	0
0	573	64.143705961797	1
0	575	64.151310175967	2
0	578	64.250476842634	0
0	580	65.11796735118	1
0	582	65.165731510692	2
0	585	65.264898177359	0
0	587	65.447050966819	1
0	589	65.546217633486	0
0	591	65.773473272577	1
0	593	65.789848120478	2
0	596	65.889014787145	0
0	598	65.947044903338	1
0	600	66.02182167341	2
0	603	66.120988340077	0
0	605	66.276669907777	1
0	607	66.375836574444	0
0	609	67.561914666086	1
0	611	67.655417958044	2
0	614	67.754584624711	0
0	616	67.961162098591	1
0	618	68.060328765258	0
0	620	68.617604871849	1
0	622	68.716771538516	0
0	624	69.057889582003	1
0	626	69.15705624867	0
0	628	69.950387438127	1
0	630	70.049554104794	0
0	632	70.715316601099	1
0	634	70.814483267766	0
0	636	70.8655814006	1
0	638	70.913750700561	2
0	641	71.012917367228	0
0	643	71.02459123398	1
0	645	71.123757900647	0
0	647	71.881645126191	1
0	649	71.883908053626	2
0	651	71.955359952727	2
0	655	72.054526619394	0
0	657	72.397880743536	1
0	659	72.417550133252	2
0	662	72.516716799919	0
0	664	72.520210988719	1
0	666	72.578343292532	2
0	669	72.677509959199	0
0	671	72.722840273216	1
0	673	72.822006939883	0
0	675	73.863666347689	1
0	677	73.962833014356	0
0	679	74.327821972884	1
0	681	74.426988639551	0
0	683	74.845032244882	1
0	685	74.944198911549	0
0	687	75.217897589726	1
0	689	75.308714115229	2
0	692	75.407880781896	0
0	694	75.806332361772	1
0	696	75.85545903408	2
0	699	75.954625700747	0
0	701	78.00943668151	1
0	703	78.108603348177	0
0	705	78.279184949285	1
0	707	78.355168136463	2
0	710	78.45433480313	0
0	712	78.789247516001	1
0	714	78.888414182668	0
0	716	78.992379235074	1
0	718	79.091545901741	0
0	720	79.651435254584	1
0	722	79.750601921251	0
0	724	79.827303459383	1
0	726	79.92647012605	0
0	728	80.129118601033	1
0	730	80.2282852677	0
0	732	81.433230006886	1
0	734	81.532396673553	0
0	736	81.74986595652	1
0	738	81.849032623187	0
0	740	82.181168257624	1
0	742	82.280334924291	0
0	744	82.698558995291	1
0	746	82.797725661958	0
0	748	83.500469947189	1
0	750	83.503686879473	2
0	753	83.60285354614	0
0	755	84.118317532034	1
0	757	84.217484198701	0
0	759	84.301430896447	1
0	761	84.39217383164	2
0	764	84.491340498307	0
0	766	85.173436297993	1
0	768	85.27260296466	0
0	770	85.451385489165	1
0	772	85.550552155832	0
0	774	85.605421722743	1
0	776	85.70458838941	0
0	778	85.73469471081	1
0	780	85.833861377477	0
0	782	86.34870240426	1
0	784	86.447869070927	0
0	786	87.615204850706	1
0	788	87.663920133912	2
0	790	87.699623249833	2
0	794	87.7987899165	0
0	796	87.832405849316	1
0	798	87.931572515983	0
0	800	88.119510415111	1
0	802	88.218677081778	0
0	804	88.278062839868	1
0	806	88.377229506535	0
0	808	88.478009970202	1
0	810	88.577176636869	0
0	812	89.028258274142	1
0	814	89.127424940809	0
0	816	89.622063368487	1
0	818	89.705356191359	2
0	821	89.804522858026	0
0	823	91.060564719045	1
0	825	91.074363438384	2
0	828	91.173530105051	0
0	830	91.281521740373	1
0	832	91.363883545915	2
0	835	91.463050212582	0
0	837	91.539379416627	1
0	839	91.543124634984	2
0	842	91.642291301651	0
0	844	91.997246357461	1
0	846	92.096413024128	0
0	848	92.379354384909	1
0	850	92.407149191318	2
0	853	92.506315857985	0
0	855	92.553010728414	1
0	857	92.594565710554	2
0	859	92.627502840217	2
0	863	92.726669506884	0
0	865	92.937967173918	1
0	867	93.037133840585	0
0	869	93.410904627028	1
0	871	93.510071293695	0
0	873	93.965173539504	1
0	875	93.989272423628	2
0	878	94.088439090295	0
0	880	94.472675032889	1
0	882	94.571841699556	0
0	884	94.823927749977	1
0	886	94.849147544528	2
0	888	94.859693678429	2
0	892	94.958860345096	0
0	894	95.048489095288	1
0	896	95.147655761955	0
0	898	95.657877013064	1
0	900	95.757043679731	0
0	902	96.413820640764	1
0	904	96.512987307431	0
0	906	97.195951198958	1
0	908	97.295117865625	0
0	910	97.641456819558	1
0	912	97.740623486225	0
0	914	97.886356895176	1
0	916	97.985523561843	0
0	918	98.163930368925	1
0	920	98.263097035592	0
0	922	99.440504464654	1
0	924	99.539671131321	0
0	926	100.708059285943	1
0	928	100.713940002752	2
0	931	100.813106669419	0
0	933	100.919291048562	1
0	935	100.99092112273	2
0	938	101.090087789397	0
0	940	101.742676494239	1
0	942	101.841843160906	0
0	944	101.87898100877	1
0	946	101.978147675437	0
0	948	102.044393918665	1
0	950	102.143560585332	0
0	952	102.367445250854	1
0	954	102.466611917521	0
0	956	103.661205361338	1
0	958	103.760372028005	0
0	960	104.397534718883	1
0	962	104.49670138555	0
0	964	104.91170165927	1
0	966	105.010868325937	0
0	968	105.161307797454	1
0	970	105.260474464121	0
0	972	105.512826492559	1
0	974	105.611993159226	0
0	976	105.745474786028	1
0	978	105.844641452695	0
0	980	106.028608733582	1
0	982	106.118388685808	2
0	985	106.217555352475	0
0	987	106.344559643947	1
0	989	106.443726310614	0
0	991	106.736212931081	1
0	993	106.835379597748	0
0	995	107.588865749341	1
0	997	107.688032416008	0
0	999	108.446924879903	1
0	1001	108.54609154657	0
0	1003	108.599557814638	1
0	1005	108.698724481305	0
0	1007	109.239885909284	1
0	1009	109.339052575951	0
0	1011	109.665726974585	1
0	1013	109.764893641252	0
0	1015	109.843198350245	1
0	1017	109.942365016912	0
0	1019	110.523967947242	1
0	1021	110.623134613909	0
0	1023	110.666249262358	1
0	1025	110.765415929025	0
0	1027	111.023680541006	1
0	1029	111.122847207673	0
0	1031	111.244213240317	1
0	1033	111.343379906984	0
0	1035	112.271225092887	1
0	1037	112.370391759554	0
0	1039	112.92484643058	1
0	1041	113.024013097247	0
0	1043	113.583253783791	1
0	1045	113.682420450458	0
0	1047	113.714781231208	1
0	1049	113.813947897875	0
0	1051	114.418704295587	1
0	1053	114.517870962254	0
0	1055	115.410912709221	1
0	1057	115.506893611853	2
0	1060	115.60606027852	0
0	1062	115.735041923497	1
0	1064	115.779157660859	2
0	1067	115.878324327526	0
0	1069	116.215454052831	1
0	1071	116.314620719498	0
0	1073	116.60198935038	1
0	1075	116.701156017047	0
0	1077	116.808184821311	1
0	1079	116.907351487978	0
0	1081	118.503223801124	1
0	1083	118.602390467791	0
0	1085	119.232278895412	1
0	1087	119.331445562079	0
0	1089	119.641231610786	1
0	1091	119.740398277453	0
0	1093	119.785589448698	1
0	1095	119.884756115365	0
0	1097	120.192486666891	1
0	1099	120.291653333558	0
0	1101	120.905786157411	1
0	1103	120.978462689448	2
0	1106	121.010779460983	2
0	1109	121.10994612765	0
0	1111	121.424034708476	1
0	1113	121.523201375143	0
0	1115	121.540248505761	1
0	1117	121.639415172428	0
0	1119	122.443076724709	1
0	1121	122.542243391376	0
0	1123	122.571192076145	1
0	1125	122.661213619096	2
0	1128	122.760380285763	0
0	1130	122.961088952479	1
0	1132	123.060255619146	0
0	1134	124.006069338425	1
0	1136	124.105236005092	0
0	1138	124.303626074451	1
0	1140	124.402792741118	0
0	1142	124.956587721289	1
0	1144	125.055754387956	0
0	1146	125.19315688051	1
0	1148	125.292323547177	0
0	1150	125.42936153439	1
0	1152	125.528528201057	0
0	1154	125.835188254084	1
0	1156	125.934354920751	0
0	1158	126.485669462374	1
0	1160	126.584836129041	0
0	1162	126.761721478386	1
0	1164	126.833873313615	2
0	1167	126.933039980282	0
0	1169	126.98017739335	1
0	1171	127.079344060017	0
0	1173	127.097481618431	1
0	1175	127.196648285098	0
0	1177	127.44132524329	1
0	1179	127.540491909957	0
0	1181	128.341843319661	1
0	1183	128.441009986328	0
0	1185	128.451566575015	1
0	1187	128.550733241682	0
0	1189	128.582543453832	1
0	1191	128.681710120499	0
0	1193	128.68260705182	1
0	1195	128.781773718487	0
0	1197	128.915145439809	1
0	1199	129.014312106476	0
0	1201	129.356051728736	1
0	1203	129.455218395403	0
0	1205	129.889849703573	1
0	1207	129.98901637024	0
0	1209	130.27067966308	1
0	1211	130.369846329747	0
0	1213	130.494182483249	1
0	1215	130.593349149916	0
0	1217	130.853614189583	1
0	1219	130.95278085625	0
0	1221	131.756242240218	1
0	1223	131.855408906885	0
0	1225	133.167120207436	1
0	1227	133.18233803518	2
0	1230	133.281504701847	0
0	1232	133.632092855223	1
0	1234	133.73125952189	0
0	1236	134.69005562062	1
0	1238	134.789222287287	0
0	1240	135.095812519427	1
0	1242	135.151955925846	2
0	1245	135.251122592513	0
0	1247	135.826712141179	1
0	1249	135.925878807846	0
0	1251	136.071851870514	1
0	1253	136.171018537181	0
0	1255	136.418480240997	1
0	1257	136.434270001866	2
0	1260	136.529356311672	2
0	1263	136.628522978339	0
0	1265	137.441164088418	1
0	1267	137.540330755085	0
0	1269	137.616111650164	1
0	1271	137.639630156434	2
0	1273	137.639760086175	2
0	1277	137.738926752842	0
0	1279	138.003939392356	1
0	1281	138.103106059023	0
0	1283	138.261130620655	1
0	1285	138.360297287322	0
0	1287	138.853040729826	1
0	1289	138.873878021363	2
0	1292	138.97304468803	0
0	1294	139.009846513022	1
0	1296	139.109013179689	0
0	1298	139.304430723764	1
0	1300	139.365037378478	2
0	1303	139.464204045145	0
0	1305	139.517721730628	1
0	1307	139.616888397295	0
0	1309	140.62135185441	1
0	1311	140.6579981154	2
0	1314	140.757164782067	0
0	1316	141.162182230454	1
0	1318	141.234344747278	2
0	1321	141.333511413945	0
0	1323	141.38248615509	1
0	1325	141.481652821757	0
0	1327	141.635104944614	1
0	1329	141.734271611281	0
0	1331	141.767403596218	1
0	1333	141.791130904876	2
0	1336	141.890297571543	0
0	1338	142.176960321114	1
0	1340	142.189526046513	2
0	1343	142.28869271318	0
0	1345	142.758067076115	1
0	1347	142.857233742782	0
0	1349	143.495822753656	1
0	1351	143.594989420323	0
0	1353	143.827169586494	1
0	1355	143.926336253161	0
0	1357	144.003803555327	1
0	1359	144.102970221994	0
0	1361	144.218423264003	1
0	1363	144.299500891703	2
0	1366	144.349294249447	2
0	1368	144.357551030047	2
0	1372	144.456717696714	0
0	1374	144.677540526237	1
0	1376	144.776707192904	0
0	1378	144.963855395978	1
0	1380	145.063022062645	0
0	1382	146.04408468165	1
0	1384	146.143251348317	0
0	1386	146.794719783164	1
0	1388	146.893886449831	0
0	1390	146.948489854806	1
0	1392	147.047656521473	0
0	1394	148.443984557267	1
0	1396	148.543151223934	0
0	1398	148.555918301505	1
0	1400	148.655084968172	0
0	1402	148.91545646436	1
0	1404	149.014623131027	0
0	1406	149.373628686058	1
0	1408	149.472795352725	0
0	1410	150.50011127217	1
0	1412	150.599277938837	0
0	1414	150.639876398152	1
0	1416	150.704130780014	2
0	1419	150.796088562496	2
0	1422	150.895255229163	0
0	1424	151.246043034091	1
0	1426	151.345209700758	0
0	1428	151.687301497396	1
0	1430	151.786468164063	0
0	1432	151.811944112089	1
0	1434	151.911110778756	0
0	1436	151.993530412945	1
0	1438	152.092697079612	0
0	1440	153.432977651509	1
0	1442	153.532144318176	0
0	1444	153.926667089861	1
0	1446	154.025833756528	0
0	1448	154.313970407727	1
0	1450	154.413137074394	0
0	1452	154.577300834208	1
0	1454	154.676467500875	0
0	1456	154.794786157006	1
0	1458	154.893952823673	0
0	1460	154.902258499991	1
0	1462	155.001425166658	0
0	1464	155.357920109683	1
0	1466	155.45708677635	0
0	1468	156.373249560465	1
0	1470	156.472416227132	0
0	1472	156.758924744647	1
0	1474	156.821073702627	2
0	1477	156.920240369294	0
0	1479	156.968964321011	1
0	1481	157.068130987678	0
0	1483	157.108258967474	1
0	1485	157.207425634141	0
0	1487	157.329923478476	1
0	1489	157.429090145143	0
0	1491	158.053902895468	1
0	1493	158.06479148353	2
0	1496	158.163958150197	0
0	1498	158.318409257879	1
0	1500	158.417575924546	0
0	1502	158.610398232076	1
0	1504	158.709564898743	0
0	1506	158.872289162319	1
0	1508	158.971455828986	0
0	1510	159.403218337875	1
0	1512	159.502385004542	0
0	1514	159.780352235405	1
0	1516	159.879518902072	0
0	1518	160.05022035169	1
0	1520	160.149387018357	0
0	1522	160.245051462935	1
0	1524	160.344218129602	0
0	1526	161.393244723698	1
0	1528	161.492411390365	0
0	1530	161.910653953609	1
0	1532	162.009820620276	0
0	1534	162.44347577492	1
0	1536	162.542642441587	0
0	1538	162.746950688131	1
0	1540	162.846117354798	0
0	1542	163.529852118597	1
0	1544	163.629018785264	0
0	1546	164.191231492386	1
0	1548	164.193417364259	2
0	1551	164.292584030926	0
0	1553	164.609209820781	1
0	1555	164.708376487448	0
0	1557	165.019497047395	1
0	1559	165.118663714062	0
0	1561	165.133080400246	1
0	1563	165.20296330076	2
0	1566	165.302129967427	0
0	1568	165.686025359014	1
0	1570	165.785192025681	0
0	1572	166.146743977511	1
0	1574	166.199573547791	2
0	1577	166.298740214458	0
0	1579	166.319027205865	1
0	1581	166.418193872532	0
0	1583	167.144005933317	1
0	1585	167.243172599984	0
0	1587	167.257187412964	1
0	1589	167.277071075501	2
0	1592	167.376237742168	0
0	1594	168.344166857303	1
0	1596	168.44333352397	0
0	1598	168.659489636649	1
0	1600	168.758656303316	0
0	1602	168.782965119127	1
0	1604	168.882131785794	0
0	1606	168.916478902209	1
0	1608	169.015645568876	0
0	1610	169.543659186532	1
0	1612	169.642825853199	0
0	1614	169.739651726254	1
0	1616	169.838818392921	0
0	1618	171.352951336341	1
0	1620	171.452118003008	0
0	1622	172.124888916013	1
0	1624	172.22405558268	0
0	1626	172.396949039702	1
0	1628	172.496115706369	0
0	1630	172.826898108592	1
0	1632	172.926064775259	0
0	1634	173.421042470679	1
0	1636	173.520209137346	0
0	1638	173.601092563933	1
0	1640	173.615478057868	2
0	1643	173.714644724535	0
0	1645	174.434249951947	1
0	1647	174.533416618614	0
0	1649	174.732129886102	1
0	1651	174.831296552769	0
0	1653	175.175803778341	1
0	1655	175.207240448964	2
0	1658	175.306407115631	0
0	1660	176.687881028449	1
0	1662	176.69101799279	2
0	1664	176.71122307145	2
0	1668	176.810389738117	0
0	1670	177.748598441305	1
0	1672	177.847765107972	0
0	1674	177.985955519622	1
0	1676	178.085122186289	0
0	1678	178.106665819307	1
0	1680	178.205832485974	0
0	1682	178.350381039626	1
0	1684	178.393825222765	2
0	1687	178.492991889432	0
0	1689	178.827361675374	1
0	1691	178.926528342041	0
0	1693	179.417520206846	1
0	1695	179.516686873513	0
0	1697	179.616300941978	1
0	1699	179.715467608645	0
0	1701	180.098155083141	1
0	1703	180.146502901531	2
0	1706	180.245669568198	0
0	1708	180.385283348724	1
0	1710	180.484450015391	0
0	1712	180.538715480178	1
0	1714	180.637882146845	0
0	1716	181.240431991694	1
0	1718	181.328806502284	2
0	1721	181.427973168951	0
0	1723	182.121795632826	1
0	1725	182.220962299493	0
0	1727	182.49349442933	1
0	1729	182.592661095997	0
0	1731	183.070546129773	1
0	1733	183.16971279644	0
0	1735	183.525498865622	1
0	1737	183.604855374709	2
0	1740	183.704022041376	0
0	1742	184.068212699188	1
0	1744	184.135724574897	2
0	1747	184.234891241564	0
0	1749	184.247817831652	1
0	1751	184.346984498319	0
0	1753	184.829336842568	1
0	1755	184.928503509235	0
0	1757	185.302617774447	1
0	1759	185.401784441114	0
0	1761	185.656688638071	1
0	1763	185.755855304738	0
0	1765	186.027150011849	1
0	1767	186.126316678516	0
0	1769	186.127073609023	1
0	1771	186.142931254173	2
0	1774	186.24209792084	0
0	1776	186.378444684697	1
0	1778	186.477611351364	0
0	1780	186.721998951348	1
0	1782	186.821165618015	0
0	1784	186.909910868762	1
0	1786	187.009077535429	0
0	1788	187.711282643342	1
0	1790	187.810449310009	0
0	1792	188.245582501967	1
0	1794	188.344749168634	0
0	1796	188.447444234286	1
0	1798	188.546610900953	0
0	1800	188.811490436707	1
0	1802	188.910657103374	0
0	1804	188.948450351676	1
0	1806	189.047617018343	0
0	1808	190.262453027456	1
0	1810	190.361619694123	0
0	1812	190.383454053347	1
0	1814	190.482620720014	0
0	1816	190.507178790956	1
0	1818	190.606345457623	0
0	1820	191.144294498491	1
0	1822	191.243461165158	0
0	1824	191.491039187239	1
0	1826	191.590205853906	0
0	1828	191.667207670867	1
0	1830	191.766374337534	0
0	1832	192.228944511888	1
0	1834	192.328111178555	0
0	1836	192.789451649105	1
0	1838	192.888618315772	0
0	1840	193.12045178292	1
0	1842	193.219618449587	0
0	1844	193.466857333821	1
0	1846	193.566024000488	0
0	1848	193.623154359538	1
0	1850	193.722321026205	0
0	1852	194.441201722432	1
0	1854	194.540368389099	0
0	1856	195.562055859028	1
0	1858	195.661222525695	0
0	1860	196.106836918014	1
0	1862	196.193842721973	2
0	1865	196.29300938864	0
0	1867	196.706147848223	1
0	1869	196.80531451489	0
0	1871	197.361719402622	1
0	1873	197.460886069289	0
0	1875	197.773060387581	1
0	1877	197.872227054248	0
0	1879	198.120131276826	1
0	1881	198.161907117992	2
0	1884	198.261073784659	0
0	1886	199.106281397641	1
0	1888	199.205448064308	0
0	1890	199.521620515587	1
0	1892	199.526226210824	2
0	1895	199.625392877491	0
0	1897	199.709335994242	1
0	1899	199.734875875311	2
0	1902	199.834042541978	0
0	1904	199.834597923305	1
0	1906	199.933764589972	0
0	1908	200.418600637351	1
0	1910	200.484353797589	2
0	1913	200.583520464256	0
0	1915	200.955221018268	1
0	1917	201.054387684935	0
0	1919	201.247984587727	1
0	1921	201.347151254394	0
0	1923	202.286595672675	1
0	1925	202.334147327188	2
0	1928	202.433313993855	0
0	1930	202.667322563795	1
0	1932	202.766489230462	0
0	1934	202.812152866703	1
0	1936	202.91131953337	0
0	1938	202.933953486131	1
0	1940	203.033120152798	0
0	1942	203.738617666122	1
0	1944	203.837784332789	0
0	1946	204.027195522727	1
0	1948	204.126362189394	0
0	1950	204.191019826388	1
0	1952	204.290186493055	0
0	1954	204.423067654469	1
0	1956	204.522234321136	0
0	1958	205.244508028767	1
0	1960	205.343674695434	0
0	1962	205.506467352408	1
0	1964	205.596487775713	2
0	1967	205.69565444238	0
0	1969	205.841345718982	1
0	1971	205.873342831073	2
0	1974	205.97250949774	0
0	1976	207.330770732602	1
0	1978	207.359993401896	2
0	1981	207.459160068563	0
0	1983	207.464108147865	1
0	1985	207.563274814532	0
0	1987	207.61394716995	1
0	1989	207.713113836617	0
0	1991	207.714316938972	1
0	1993	207.813483605639	0
0	1995	208.644639117165	1
0	1997	208.743805783832	0
0	1999	208.787468461781	1
0	2001	208.886635128448	0
0	2003	210.067804562569	1
0	2005	210.166971229236	0
0	2007	211.112665427689	1
0	2009	211.211832094356	0
0	2011	211.254061793077	1
0	2013	211.353228459744	0
0	2015	211.466658242704	1
0	2017	211.565824909371	0
0	2019	211.568834767935	1
0	2021	211.668001434602	0
0	2023	211.896306858703	1
0	2025	211.99547352537	0
0	2027	212.267065365749	1
0	2029	212.268100101253	2
0	2031	212.307236033578	2
0	2035	212.406402700245	0
0	2037	212.668834960267	1
0	2039	212.752719674733	2
0	2042	212.8518863414	0
0	2044	213.974037776855	1
0	2046	214.073204443522	0
0	2048	214.145140466915	1
0	2050	214.244307133582	0
0	2052	214.503415000192	1
0	2054	214.602581666859	0
0	2056	214.806783855255	1
0	2058	214.905950521922	0
0	2060	215.197528738233	1
0	2062	215.2966954049	0
0	2064	215.388714626407	1
0	2066	215.487881293074	0
0	2068	216.438359373704	1
0	2070	216.537526040371	0
0	2072	216.718307731048	1
0	2074	216.725134259711	2
0	2076	216.742619533231	2
0	2080	216.841786199898	0
0	2082	217.599089200183	1
0	2084	217.69825586685	0
0	2086	218.149334957007	1
0	2088	218.248501623674	0
0	2090	218.834882892793	1
0	2092	218.862881953241	2
0	2095	218.962048619908	0
0	2097	219.616758396892	1
0	2099	219.715925063559	0
0	2101	220.043249720855	1
0	2103	220.083362047306	2
0	2106	220.182528713973	0
0	2108	220.35259852243	1
0	2110	220.451765189097	0
0	2112	220.502895660129	1
0	2114	220.505060025323	2
0	2117	220.60422669199	0
0	2119	220.804469450214	1
0	2121	220.903636116881	0
0	2123	221.728615947215	1
0	2125	221.817467838404	2
0	2128	221.916634505071	0
0	2130	222.181951600522	1
0	2132	222.281118267189	0
0	2134	222.587946106866	1
0	2136	222.687112773533	0
0	2138	222.894091552072	1
0	2140	222.993258218739	0
0	2142	222.995890287543	1
0	2144	223.09505695421	0
0	2146	223.465150066757	1
0	2148	223.564316733424	0
0	2150	223.997537690803	1
0	2152	224.09670435747	0
0	2154	225.580161642568	1
0	2156	225.679328309235	0
0	2158	225.790256209618	1
0	2160	225.889422876285	0
0	2162	227.113228146038	1
0	2164	227.212394812705	0
0	2166	227.41296683875	1
0	2168	227.512133505417	0
0	2170	227.648948744821	1
0	2172	227.704113581749	2
0	2175	227.803280248416	0
0	2177	227.935513386659	1
0	2179	227.998022806915	2
0	2182	228.087065548047	2
0	2185	228.186232214714	0
0	2187	228.904886748315	1
0	2189	229.004053414982	0
0	2191	229.979075369488	1
0	2193	230.078242036155	0
0	2195	230.356192448804	1
0	2197	230.430980159856	2
0	2200	230.530146826523	0
0	2202	231.141243138751	1
0	2204	231.240409805418	0
0	2206	232.265065339245	1
0	2208	232.364232005912	0
0	2210	233.117019544476	1
0	2212	233.216186211143	0
0	2214	233.41240549755	1
0	2216	233.485090951904	2
0	2219	233.584257618571	0
0	2221	233.760330784552	1
0	2223	233.859497451219	0
0	2225	234.27696011927	1
0	2227	234.376126785937	0
0	2229	235.35755837052	1
0	2231	235.456725037187	0
0	2233	236.354073980047	1
0	2235	236.453240646714	0
0	2237	236.454669996307	1
0	2239	236.553836662974	0
0	2241	236.958138569884	1
0	2243	236.970061346106	2
0	2246	237.069228012773	0
0	2248	237.21828897663	1
0	2250	237.317455643297	0
0	2252	237.478576755294	1
0	2254	237.577743421961	0
0	2256	237.69396913702	1
0	2258	237.793135803687	0
0	2260	238.406828447692	1
0	2262	238.505995114359	0
0	2264	238.552144644449	1
0	2266	238.651311311116	0
0	2268	238.656082738541	1
0	2270	238.755249405208	0
0	2272	238.928503825091	1
0	2274	239.027670491758	0
0	2276	239.309528053823	1
0	2278	239.40869472049	0
0	2280	239.844420908694	1
0	2282	239.942594685366	2
0	2285	240.041761352033	0
0	2287	240.171167658925	1
0	2289	240.270334325592	0
0	2291	241.049567807705	1
0	2293	241.091420313985	2
0	2296	241.190586980652	0