version 3
run PureAlohaExperiment-3-20260306-12:10:16-8840
attr configname PureAlohaExperiment
attr datetime 20260306-12:10:16
attr datetimef 20260306-121016
attr experiment PureAlohaExperiment
attr inifile omnetpp.ini
attr iterationvars "$numHosts=10, $iaMean=2"
attr iterationvarsd numHosts=10/iaMean=2
attr iterationvarsf numHosts=10,iaMean=2-
attr measurement "$numHosts=10, $iaMean=2"
attr network Aloha
attr processid 8840
attr repetition 1
attr replication #1
attr resultdir results
attr runnumber 3
attr seedset 3
itervar iaMean 2
itervar numHosts 10
config description "Channel utilization in the function of packet generation frequency"
config repeat 2
config sim-time-limit 90min
config Aloha.numHosts 10
config Aloha.host[*].iaTime exponential(2s)
config network Aloha
config Aloha.numHosts 20
config Aloha.slotTime 0s
config Aloha.txRate 9.6kbps
config Aloha.host[*].pkLenBits 952b
config **.x "uniform(0m, 1000m)"
config **.y "uniform(0m, 1000m)"
config **.animationHoldTimeOnCollision 0s
config **.idleAnimationSpeed 1
config **.transmissionEdgeAnimationSpeed 1e-6
config **.midTransmissionAnimationSpeed 1e-1

vector 0 Aloha.server serverChannelState:vector ETV
attr enum IDLE=0,TRANSMISSION=1,COLLISION=2
attr recordingmode vector
attr source channelState
attr title "Channel state"
vector 1 Aloha.host[0] radioState:vector ETV
attr enum IDLE=0,TRANSMIT=1
attr recordingmode vector
attr source state
attr title "Radio state"
vector 2 Aloha.host[1] radioState:vector ETV
attr enum IDLE=0,TRANSMIT=1
attr recordingmode vector
attr source state
attr title "Radio state"
vector 3 Aloha.host[2] radioState:vector ETV
attr enum IDLE=0,TRANSMIT=1
attr recordingmode vector
attr source state
attr title "Radio state"
vector 4 Aloha.host[3] radioState:vector ETV
attr enum IDLE=0,TRANSMIT=1
attr recordingmode vector
attr source state
attr title "Radio state"
vector 5 Aloha.host[4] radioState:vector ETV
attr enum IDLE=0,TRANSMIT=1
attr recordingmode vector
attr source state
attr title "Radio state"
vector 6 Aloha.host[5] radioState:vector ETV
attr enum IDLE=0,TRANSMIT=1
attr recordingmode vector
attr source state
attr title "Radio state"
vector 7 Aloha.host[6] radioState:vector ETV
attr enum IDLE=0,TRANSMIT=1
attr recordingmode vector
attr source state
attr title "Radio state"
vector 8 Aloha.host[7] radioState:vector ETV
attr enum IDLE=0,TRANSMIT=1
attr recordingmode vector
attr source state
attr title "Radio state"
vector 9 Aloha.host[8] radioState:vector ETV
attr enum IDLE=0,TRANSMIT=1
attr recordingmode vector
attr source state
attr title "Radio state"
vector 10 Aloha.host[9] radioState:vector ETV
attr enum IDLE=0,TRANSMIT=1
attr recordingmode vector
attr source state
attr title "Radio state"
vector 11 Aloha.server channelUtilizationVector:vector ETV
attr interpolationmode linear
attr recordingmode vector
attr source timeavg(receive)
attr title "channel utilization evolution"
0	0	0	0
0	2	0.485615430277	1
0	4	0.584782096944	0
0	6	0.633330357817	1
0	8	0.652811718391	2
0	11	0.751978385058	0
0	13	0.873619101948	1
0	15	0.972785768615	0
0	17	1.207243915606	1
0	19	1.220680350178	2
0	22	1.319847016845	0
0	24	1.357054524895	1
0	26	1.456221191562	0
0	28	1.787411621737	1
0	30	1.886578288404	0
0	32	1.906601368958	1
0	34	2.005768035625	0
0	36	2.094760754768	1
0	38	2.193927421435	0
0	40	2.255598913013	1
0	42	2.349382592396	2
0	45	2.388737556277	2
0	48	2.487904222944	0
0	50	2.528854054738	1
0	52	2.628020721405	0
0	54	2.672592124677	1
0	56	2.771758791344	0
0	58	2.925533599563	1
0	60	3.02470026623	0
0	62	3.113021675416	1
0	64	3.212188342083	0
0	66	3.270967588875	1
0	68	3.370134255542	0
0	70	3.495951552734	1
0	72	3.595118219401	0
0	74	3.635881923592	1
0	76	3.649162308143	2
0	79	3.74832897481	0
0	81	4.215325148081	1
0	83	4.237200357932	2
0	86	4.336367024599	0
0	88	4.479943527804	1
0	90	4.579110194471	0
0	92	4.717479342924	1
0	94	4.785561855227	2
0	97	4.838316270461	2
0	100	4.890638058405	2
0	102	4.910186386644	2
0	106	5.009353053311	0
0	108	5.03146461881	1
0	110	5.130631285477	0
0	112	5.438606440691	1
0	114	5.537773107358	0
0	116	5.798598073666	1
0	118	5.897764740333	0
0	120	6.205004707289	1
0	122	6.304171373956	0
0	124	6.626237205552	1
0	126	6.684757313887	2
0	129	6.783923980554	0
0	131	7.137834046311	1
0	133	7.237000712978	0
0	135	7.419420266452	1
0	137	7.518586933119	0
0	139	7.769597321669	1
0	141	7.868763988336	0
0	143	8.245228551897	1
0	145	8.255291306042	2
0	148	8.354457972709	0
0	150	8.468198159016	1
0	152	8.537895075084	2
0	155	8.637061741751	0
0	157	8.974496855238	1
0	159	9.050180395142	2
0	162	9.149347061809	0
0	164	9.422369057827	1
0	166	9.521535724494	0
0	168	10.035626345867	1
0	170	10.134793012534	0
0	172	10.181570953518	1
0	174	10.280737620185	0
0	176	10.419005802015	1
0	178	10.447252562794	2
0	181	10.522296525931	2
0	184	10.621463192598	0
0	186	10.686595516909	1
0	188	10.705833919789	2
0	191	10.790662776569	2
0	194	10.889829443236	0
0	196	10.966842329877	1
0	198	11.066008996544	0
0	200	11.277086746914	1
0	202	11.376253413581	0
0	204	11.51715772793	1
0	206	11.589922477799	2
0	209	11.649839571998	2
0	212	11.731288865313	2
0	215	11.83045553198	0
0	217	12.051523647513	1
0	219	12.066290483959	2
0	221	12.071015451312	2
0	225	12.170182117979	0
0	227	12.276055446443	1
0	229	12.37522211311	0
0	231	12.468374980938	1
0	233	12.567541647605	0
0	235	12.912910831907	1
0	237	12.947297078914	2
0	240	13.041942291491	2
0	243	13.141108958158	0
0	245	13.562902857702	1
0	247	13.662069524369	0
0	249	13.663475478314	1
0	251	13.762642144981	0
0	253	13.81842533239	1
0	255	13.869506583209	2
0	258	13.930457881616	2
0	261	13.98367209352	2
0	264	14.082838760187	0
0	266	14.161412337171	1
0	268	14.222501042285	2
0	271	14.321667708952	0
0	273	14.324173954772	1
0	275	14.353661553027	2
0	277	14.418410111737	2
0	281	14.504209016996	2
0	284	14.603375683663	0
0	286	15.502762153143	1
0	288	15.526076329808	2
0	291	15.625242996475	0
0	293	15.698398575244	1
0	295	15.770323136273	2
0	297	15.774519431142	2
0	301	15.873686097809	0
0	303	15.901969748571	1
0	305	16.001136415238	0
0	307	16.26718524363	1
0	309	16.366351910297	0
0	311	16.501830364506	1
0	313	16.600997031173	0
0	315	16.776651282338	1
0	317	16.782771094135	2
0	320	16.881937760802	0
0	322	17.096201871777	1
0	324	17.195368538444	0
0	326	17.249297013955	1
0	328	17.348463680622	0
0	330	17.636244814377	1
0	332	17.735411481044	0
0	334	17.817470408703	1
0	336	17.91663707537	0
0	338	17.938798957921	1
0	340	18.037965624588	0
0	342	18.085100690055	1
0	344	18.184267356722	0
0	346	18.350565947523	1
0	348	18.44973261419	0
0	350	18.616216242597	1
0	352	18.715382909264	0
0	354	18.747209421592	1
0	356	18.846376088259	0
0	358	18.938082336305	1
0	360	19.037249002972	0
0	362	19.079323127213	1
0	364	19.17848979388	0
0	366	19.486189718789	1
0	368	19.50386110449	2
0	370	19.554516544268	2
0	373	19.591543277345	2
0	377	19.670648548342	2
0	380	19.712362881355	2
0	383	19.811529548022	0
0	385	19.885244620389	1
0	387	19.984411287056	0
0	389	20.209609906916	1
0	391	20.215346111406	2
0	394	20.314512778073	0
0	396	20.32101037146	1
0	398	20.322855605973	2
0	400	20.351685064528	2
0	404	20.450851731195	0
0	406	20.503593618181	1
0	408	20.508658811408	2
0	410	20.581369869946	2
0	414	20.680536536613	0
0	416	20.908439395089	1
0	418	21.007606061756	0
0	420	21.737459097996	1
0	422	21.836625764663	0
0	424	21.948605238381	1
0	426	21.969588146791	2
0	428	22.016541282371	2
0	432	22.115707949038	0
0	434	22.207389424443	1
0	436	22.30655609111	0
0	438	22.457215053572	1
0	440	22.511550613372	2
0	442	22.524393303886	2
0	446	22.623559970553	0
0	448	22.666433850325	1
0	450	22.765600516992	0
0	452	22.981075111448	1
0	454	23.010880239515	2
0	456	23.054446082635	2
0	459	23.095021982734	2
0	463	23.177028120884	2
0	466	23.205967668522	2
0	469	23.305134335189	0
0	471	23.320999826668	1
0	473	23.420166493335	0
0	475	23.471090139492	1
0	477	23.570256806159	0
0	479	23.652595296306	1
0	481	23.667253009583	2
0	484	23.76641967625	0
0	486	23.931612943418	1
0	488	23.986310639694	2
0	491	24.085477306361	0
0	493	24.916770736247	1
0	495	25.015937402914	0
0	497	25.513152991638	1
0	499	25.612319658305	0
0	501	25.81561341666	1
0	503	25.914780083327	0
0	505	26.010410513192	1
0	507	26.065977446572	2
0	510	26.165144113239	0
0	512	26.221761585608	1
0	514	26.320928252275	0
0	516	26.374444961989	1
0	518	26.473611628656	0
0	520	26.812519131624	1
0	522	26.892731250312	2
0	525	26.933670635481	2
0	528	27.032837302148	0
0	530	27.169815520105	1
0	532	27.268982186772	0
0	534	27.315879286569	1
0	536	27.415045953236	0
0	538	27.579443023706	1
0	540	27.658708435061	2
0	543	27.757875101728	0
0	545	28.565975682879	1
0	547	28.665142349546	0
0	549	28.962906829625	1
0	551	29.062073496292	0
0	553	29.06665114447	1
0	555	29.165817811137	0
0	557	29.843751211728	1
0	559	29.942917878395	0
0	561	30.006633762441	1
0	563	30.027153570018	2
0	566	30.126320236685	0
0	568	30.419059909014	1
0	570	30.518226575681	0
0	572	30.687938830859	1
0	574	30.787105497526	0
0	576	31.890062406525	1
0	578	31.937735307254	2
0	581	32.036901973921	0
0	583	32.138776070699	1
0	585	32.237942737366	0
0	587	32.285857552422	1
0	589	32.351745641347	2
0	592	32.450912308014	0
0	594	32.673959726113	1
0	596	32.753700591192	2
0	599	32.852867257859	0
0	601	32.904438260511	1
0	603	33.003604927178	0
0	605	33.069109928305	1
0	607	33.168276594972	0
0	609	33.296249447311	1
0	611	33.395416113978	0
0	613	33.440863881738	1
0	615	33.540030548405	0
0	617	33.821981515829	1
0	619	33.921148182496	0
0	621	34.045319200767	1
0	623	34.072372775077	2
0	626	34.171539441744	0
0	628	34.3828244629	1
0	630	34.429465517584	2
0	633	34.528632184251	0
0	635	34.597980060453	1
0	637	34.69714672712	0
0	639	35.054529329192	1
0	641	35.070268946857	2
0	644	35.169435613524	0
0	646	35.586563439064	1
0	648	35.685730105731	0
0	650	35.693346245317	1
0	652	35.792512911984	0
0	654	36.507992480472	1
0	656	36.607159147139	0
0	658	36.68905539059	1
0	660	36.723502485053	2
0	663	36.795320927332	2
0	666	36.894487593999	0
0	668	37.059936148181	1
0	670	37.159102814848	0
0	672	37.245185186564	1
0	674	37.254476580594	2
0	676	37.27284860396	2
0	680	37.372015270627	0
0	682	37.603321088022	1
0	684	37.702487754689	0
0	686	37.998171834287	1
0	688	38.053155066821	2
0	691	38.152321733488	0
0	693	38.164944502282	1
0	695	38.184662978032	2
0	698	38.283829644699	0
0	700	38.77559432617	1
0	702	38.874760992837	0
0	704	38.960930383522	1
0	706	39.030030460937	2
0	709	39.129197127604	0
0	711	39.367286130944	1
0	713	39.450213827546	2
0	716	39.549380494213	0
0	718	39.619402232135	1
0	720	39.663469263457	2
0	723	39.762635930124	0
0	725	39.967573569662	1
0	727	40.019706273643	2
0	730	40.11887294031	0
0	732	40.198264235435	1
0	734	40.297430902102	0
0	736	40.452382611372	1
0	738	40.551549278039	0
0	740	40.573135841336	1
0	742	40.606841302897	2
0	745	40.706007969564	0
0	747	40.838238009207	1
0	749	40.937404675874	0
0	751	41.038116196615	1
0	753	41.137282863282	0
0	755	41.329814758313	1
0	757	41.42898142498	0
0	759	41.430781551231	1
0	761	41.529948217898	0
0	763	41.686771860446	1
0	765	41.731956935327	2
0	767	41.74160671193	2
0	771	41.840773378597	0
0	773	41.898840264082	1
0	775	41.998006930749	0
0	777	42.111024211781	1
0	779	42.177649005341	2
0	782	42.276815672008	0
0	784	42.41113717523	1
0	786	42.419513860143	2
0	788	42.456271178616	2
0	792	42.555437845283	0
0	794	42.835069401978	1
0	796	42.934236068645	0
0	798	43.152865696609	1
0	800	43.252032363276	0
0	802	43.514118047046	1
0	804	43.613284713713	0
0	806	43.946843742472	1
0	808	44.046010409139	0
0	810	44.1771116277	1
0	812	44.276278294367	0
0	814	44.409857436977	1
0	816	44.492556664745	2
0	819	44.591723331412	0
0	821	44.654450472934	1
0	823	44.667826181788	2
0	826	44.766992848455	0
0	828	44.872547140026	1
0	830	44.971713806693	0
0	832	45.044731813164	1
0	834	45.143898479831	0
0	836	45.144728119792	1
0	838	45.18971301648	2
0	841	45.288879683147	0
0	843	45.781698670826	1
0	845	45.860581966008	2
0	848	45.883423095476	2
0	850	45.945544937668	2
0	854	46.044711604335	0
0	856	46.558422208188	1
0	858	46.657588874855	0
0	860	47.030328852977	1
0	862	47.129495519644	0
0	864	47.437233635194	1
0	866	47.536400301861	0
0	868	48.139543337062	1
0	870	48.238710003729	0
0	872	48.581876258016	1
0	874	48.681042924683	0
0	876	49.076888094268	1
0	878	49.176054760935	0
0	880	49.438060595835	1
0	882	49.519701089685	2
0	885	49.616281945722	2
0	888	49.715448612389	0
0	890	50.448326023056	1
0	892	50.547492689723	0
0	894	50.548566903761	1
0	896	50.647733570428	0
0	898	50.781452140115	1
0	900	50.880618806782	0
0	902	51.036207876997	1
0	904	51.135374543664	0
0	906	51.378541532751	1
0	908	51.477708199418	0
0	910	51.66705928776	1
0	912	51.766225954427	0
0	914	52.076980704846	1
0	916	52.176147371513	0
0	918	52.453665676634	1
0	920	52.552832343301	0
0	922	53.267014188499	1
0	924	53.366180855166	0
0	926	53.716494341869	1
0	928	53.815661008536	0
0	930	54.055710147843	1
0	932	54.15487681451	0
0	934	54.159691494117	1
0	936	54.237599073193	2
0	939	54.325058261662	2
0	942	54.424224928329	0
0	944	55.072190514977	1
0	946	55.127335952749	2
0	949	55.226502619416	0
0	951	55.255323180381	1
0	953	55.354489847048	0
0	955	55.573072119719	1
0	957	55.672238786386	0
0	959	56.562025962697	1
0	961	56.617376570707	2
0	963	56.633505431944	2
0	967	56.732672098611	0
0	969	56.81780635029	1
0	971	56.860571071543	2
0	974	56.95973773821	0
0	976	57.130275214952	1
0	978	57.217379940482	2
0	981	57.316546607149	0
0	983	57.774083925744	1
0	985	57.82418397893	2
0	988	57.923350645597	0
0	990	57.982669883455	1
0	992	58.081836550122	0
0	994	58.107212271318	1
0	996	58.206378937985	0
0	998	58.506126845464	1
0	1000	58.605293512131	0
0	1002	58.665366807667	1
0	1004	58.764533474334	0
0	1006	58.77921005769	1
0	1008	58.878376724357	0
0	1010	58.939151276135	1
0	1012	58.961266706613	2
0	1015	59.06043337328	0
0	1017	59.310838634802	1
0	1019	59.410005301469	0
0	1021	59.413753819194	1
0	1023	59.512920485861	0
0	1025	60.137531947044	1
0	1027	60.236698613711	0
0	1029	60.402460567129	1
0	1031	60.501627233796	0
0	1033	61.418419296586	1
0	1035	61.471351582159	2
0	1038	61.570518248826	0
0	1040	61.681905030976	1
0	1042	61.781071697643	0
0	1044	61.782274588842	1
0	1046	61.881441255509	0
0	1048	61.888536008422	1
0	1050	61.987702675089	0
0	1052	62.029193059569	1
0	1054	62.128359726236	0
0	1056	62.128938549151	1
0	1058	62.189861130444	2
0	1061	62.2689790799	2
0	1063	62.276429099896	2
0	1067	62.375595766563	0
0	1069	62.431816338458	1
0	1071	62.530983005125	0
0	1073	62.592069649571	1
0	1075	62.691236316238	0
0	1077	62.948605847414	1
0	1079	63.047772514081	0
0	1081	63.120984694986	1
0	1083	63.205579720053	2
0	1086	63.30474638672	0
0	1088	63.849509299714	1
0	1090	63.896838676276	2
0	1093	63.996005342943	0
0	1095	64.008716378748	1
0	1097	64.107883045415	0
0	1099	64.775623750119	1
0	1101	64.874790416786	0
0	1103	64.926509142073	1
0	1105	65.02567580874	0
0	1107	65.218987477358	1
0	1109	65.318154144025	0
0	1111	65.412218032777	1
0	1113	65.511384699444	0
0	1115	65.548535934363	1
0	1117	65.647286667525	2
0	1120	65.746453334192	0
0	1122	65.997948314689	1
0	1124	66.097114981356	0
0	1126	66.388448947599	1
0	1128	66.487615614266	0
0	1130	66.5499133587	1
0	1132	66.637364417225	2
0	1135	66.736531083892	0
0	1137	67.492191066465	1
0	1139	67.536454047904	2
0	1142	67.635620714571	0
0	1144	68.222139954618	1
0	1146	68.290670366563	2
0	1149	68.38983703323	0
0	1151	68.847834639244	1
0	1153	68.947001305911	0
0	1155	69.006921979593	1
0	1157	69.10608864626	0
0	1159	69.191841029552	1
0	1161	69.291007696219	0
0	1163	69.31119378533	1
0	1165	69.31656415982	2
0	1168	69.415730826487	0
0	1170	69.436430780948	1
0	1172	69.516936630764	2
0	1175	69.611254145341	2
0	1178	69.710420812008	0
0	1180	70.119492655807	1
0	1182	70.218659322474	0
0	1184	70.259367763521	1
0	1186	70.358534430188	0
0	1188	70.594237536521	1
0	1190	70.656741156826	2
0	1193	70.755907823493	0
0	1195	71.177729529926	1
0	1197	71.240716543006	2
0	1200	71.280810656345	2
0	1203	71.351466784273	2
0	1206	71.45063345094	0
0	1208	71.500232943527	1
0	1210	71.599399610194	0
0	1212	71.741621099749	1
0	1214	71.840787766416	0
0	1216	72.465777108671	1
0	1218	72.536055697817	2
0	1221	72.635222364484	0
0	1223	72.68121602644	1
0	1225	72.773554805115	2
0	1228	72.872721471782	0
0	1230	73.162529783568	1
0	1232	73.261696450235	0
0	1234	73.341558142469	1
0	1236	73.440724809136	0
0	1238	73.767486300594	1
0	1240	73.866652967261	0
0	1242	74.166384577687	1
0	1244	74.231457565136	2
0	1247	74.317271567591	2
0	1250	74.358680873922	2
0	1252	74.375311398657	2
0	1256	74.474478065324	0
0	1258	74.530937167458	1
0	1260	74.630103834125	0
0	1262	74.960872686758	1
0	1264	75.060039353425	0
0	1266	75.284081867522	1
0	1268	75.327394577423	2
0	1271	75.42656124409	0
0	1273	75.450858925943	1
0	1275	75.512534084377	2
0	1278	75.611700751044	0
0	1280	75.786824058434	1
0	1282	75.885990725101	0
0	1284	75.951528281136	1
0	1286	76.050694947803	0
0	1288	76.7435232997	1
0	1290	76.842689966367	0
0	1292	76.881145805325	1
0	1294	76.980312471992	0
0	1296	77.112913709104	1
0	1298	77.182077432295	2
0	1300	77.189792927847	2
0	1304	77.288959594514	0
0	1306	77.897740963232	1
0	1308	77.996907629899	0
0	1310	78.06153126193	1
0	1312	78.131332549596	2
0	1314	78.150751351312	2
0	1318	78.249918017979	0
0	1320	78.295211853732	1
0	1322	78.377641408562	2
0	1325	78.436730890307	2
0	1328	78.522985172938	2
0	1331	78.568643308579	2
0	1334	78.667809975246	0
0	1336	79.372771948389	1
0	1338	79.471938615056	0
0	1340	79.534185133456	1
0	1342	79.540361731105	2
0	1345	79.639528397772	0
0	1347	79.775377168068	1
0	1349	79.848306001016	2
0	1352	79.947472667683	0
0	1354	80.03370473871	1
0	1356	80.132871405377	0
0	1358	80.202872133768	1
0	1360	80.302038800435	0
0	1362	80.30681135115	1
0	1364	80.405978017817	0
0	1366	80.42625822237	1
0	1368	80.525424889037	0
0	1370	80.563126132218	1
0	1372	80.662292798885	0
0	1374	80.794365217655	1
0	1376	80.813440143001	2
0	1379	80.912606809668	0
0	1381	81.068416675667	1
0	1383	81.167583342334	0
0	1385	81.392412313483	1
0	1387	81.408055295009	2
0	1390	81.507221961676	0
0	1392	81.680686565858	1
0	1394	81.779853232525	0
0	1396	82.059275530759	1
0	1398	82.158442197426	0
0	1400	82.304260806892	1
0	1402	82.403427473559	0
0	1404	82.84839463011	1
0	1406	82.86902427657	2
0	1408	82.870564026653	2
0	1410	82.93159730138	2
0	1415	83.030763968047	0
0	1417	83.425124160668	1
0	1419	83.524290827335	0
0	1421	83.53068787361	1
0	1423	83.629854540277	0
0	1425	83.642013642423	1
0	1427	83.6797991616	2
0	1430	83.778965828267	0
0	1432	83.901207244724	1
0	1434	83.972011701138	2
0	1437	84.071178367805	0
0	1439	84.181145680439	1
0	1441	84.280312347106	0
0	1443	84.341295674348	1
0	1445	84.423536255788	2
0	1448	84.522702922455	0
0	1450	84.539741400948	1
0	1452	84.638908067615	0
0	1454	84.772782388228	1
0	1456	84.788901323295	2
0	1459	84.888067989962	0
0	1461	84.934784256941	1
0	1463	84.959293489802	2
0	1466	85.058460156469	0
0	1468	85.144369443307	1
0	1470	85.243536109974	0
0	1472	85.269211192083	1
0	1474	85.36837785875	0
0	1476	85.369869455284	1
0	1478	85.44479440204	2
0	1481	85.543961068707	0
0	1483	85.562138254131	1
0	1485	85.605521561361	2
0	1488	85.704688228028	0
0	1490	85.922187606575	1
0	1492	86.021354273242	0
0	1494	86.070966399747	1
0	1496	86.111203536182	2
0	1499	86.210370202849	0
0	1501	86.36441903169	1
0	1503	86.367998238873	2
0	1506	86.46716490554	0
0	1508	86.524850510174	1
0	1510	86.624017176841	0
0	1512	86.669404487914	1
0	1514	86.768571154581	0
0	1516	86.849083943346	1
0	1518	86.942802644906	2
0	1521	87.041969311573	0
0	1523	87.108545823143	1
0	1525	87.20771248981	0
0	1527	87.277277806492	1
0	1529	87.376444473159	0
0	1531	88.140493914563	1
0	1533	88.23966058123	0
0	1535	88.67452492001	1
0	1537	88.739342984648	2
0	1540	88.838509651315	0
0	1542	88.933313938915	1
0	1544	89.032480605582	0
0	1546	89.231396733227	1
0	1548	89.330563399894	0
0	1550	89.431188979059	1
0	1552	89.530355645726	0
0	1554	89.581058929771	1
0	1556	89.680225596438	0
0	1558	89.795504726176	1
0	1560	89.892279055177	2
0	1563	89.991445721844	0
0	1565	89.996293227831	1
0	1567	90.095459894498	0
0	1569	90.488135483703	1
0	1571	90.58730215037	0
0	1573	90.610593114548	1
0	1575	90.683699906084	2
0	1578	90.782866572751	0
0	1580	90.795499698539	1
0	1582	90.804449606206	2
0	1584	90.875546808446	2
0	1588	90.974713475113	0
0	1590	91.2996643815	1
0	1592	91.352978653875	2
0	1595	91.452145320542	0
0	1597	91.809099240692	1
0	1599	91.908265907359	0
0	1601	92.012766145451	1
0	1603	92.111932812118	0
0	1605	92.254179033742	1
0	1607	92.353345700409	0
0	1609	92.906569248484	1
0	1611	92.964617133674	2
0	1614	93.006693775529	2
0	1617	93.094493825739	2
0	1620	93.193660492406	0
0	1622	93.484659638973	1
0	1624	93.507646492925	2
0	1627	93.606813159592	0
0	1629	93.708475660978	1
0	1631	93.807642327645	0
0	1633	93.834296199488	1
0	1635	93.862952848802	2
0	1638	93.962119515469	0
0	1640	93.977167534957	1
0	1642	94.012806993691	2
0	1645	94.111973660358	0
0	1647	94.241130982038	1
0	1649	94.24825274	2
0	1651	94.276064278087	2
0	1655	94.375230944754	0
0	1657	94.426177064954	1
0	1659	94.525343731621	0
0	1661	94.622141408662	1
0	1663	94.721308075329	0
0	1665	94.729859211055	1
0	1667	94.829025877722	0
0	1669	95.041031127381	1
0	1671	95.13725329505	2
0	1674	95.236419961717	0
0	1676	95.309734977775	1
0	1678	95.408901644442	0
0	1680	95.455282937236	1
0	1682	95.554449603903	0
0	1684	95.607805384292	1
0	1686	95.706344458638	2
0	1689	95.805511125305	0
0	1691	95.834003673652	1
0	1693	95.933170340319	0
0	1695	95.951447850475	1
0	1697	95.967741548864	2
0	1699	96.028271819332	2
0	1703	96.127438485999	0
0	1705	96.279147704179	1
0	1707	96.378314370846	0
0	1709	96.63042253149	1
0	1711	96.631415957703	2
0	1714	96.73058262437	0
0	1716	96.73947530132	1
0	1718	96.838641967987	0
0	1720	96.994727386993	1
0	1722	97.09389405366	0
0	1724	97.850220883255	1
0	1726	97.857634894999	2
0	1729	97.956801561666	0
0	1731	98.045549690871	1
0	1733	98.144716357538	0
0	1735	98.364043536307	1
0	1737	98.463210202974	0
0	1739	98.471586970993	1
0	1741	98.57075363766	0
0	1743	98.783312662947	1
0	1745	98.882479329614	0
0	1747	99.702116798928	1
0	1749	99.716779859538	2
0	1751	99.755184930849	2
0	1755	99.854351597516	0
0	1757	99.959713387676	1
0	1759	100.058880054343	0
0	1761	100.065957362035	1
0	1763	100.165124028702	0
0	1765	100.194682974574	1
0	1767	100.293849641241	0
0	1769	100.379809784444	1
0	1771	100.478976451111	0
0	1773	100.614764222303	1
0	1775	100.71393088897	0
0	1777	101.207809448838	1
0	1779	101.306976115505	0
0	1781	101.670924827708	1
0	1783	101.770091494375	0
0	1785	102.773229952246	1
0	1787	102.872396618913	0
0	1789	103.095917408091	1
0	1791	103.195084074758	0
0	1793	103.474618937548	1
0	1795	103.573687009342	2
0	1798	103.584430359504	2
0	1801	103.683597026171	0
0	1803	104.024093965364	1
0	1805	104.123260632031	0
0	1807	104.363464425674	1
0	1809	104.375955212509	2
0	1812	104.475121879176	0
0	1814	104.489445473952	1
0	1816	104.588612140619	0
0	1818	104.748046928787	1
0	1820	104.847213595454	0
0	1822	104.931485822074	1
0	1824	105.030652488741	0
0	1826	105.088035760697	1
0	1828	105.187202427364	0
0	1830	105.356998198826	1
0	1832	105.420650782468	2
0	1834	105.455265684326	2
0	1838	105.554432350993	0
0	1840	105.609240264158	1
0	1842	105.708406930825	0
0	1844	105.899718297432	1
0	1846	105.998884964099	0
0	1848	106.086979709553	1
0	1850	106.107744581099	2
0	1853	106.206911247766	0
0	1855	106.477104693423	1
0	1857	106.57627136009	0
0	1859	106.606395619717	1
0	1861	106.683931668118	2
0	1864	106.783098334785	0
0	1866	107.127345079564	1
0	1868	107.156789610032	2
0	1870	107.225982312658	2
0	1874	107.273096030638	2
0	1877	107.372262697305	0
0	1879	107.489370447994	1
0	1881	107.503406639232	2
0	1884	107.602573305899	0
0	1886	107.739076769192	1
0	1888	107.838243435859	0
0	1890	108.103776647053	1
0	1892	108.20294331372	0
0	1894	108.9840637473	1
0	1896	109.083230413967	0
0	1898	109.273244361947	1
0	1900	109.372411028614	0
0	1902	109.59547905044	1
0	1904	109.623307486455	2
0	1907	109.722474153122	0
0	1909	109.832280779064	1
0	1911	109.931447445731	0
0	1913	110.112310345204	1
0	1915	110.116945653422	2
0	1917	110.171414191196	2
0	1921	110.270580857863	0
0	1923	110.957552151587	1
0	1925	111.019172249875	2
0	1928	111.118338916542	0
0	1930	111.345684367154	1
0	1932	111.351645615968	2
0	1935	111.450812282635	0
0	1937	111.470172396818	1
0	1939	111.569339063485	0
0	1941	111.600034858235	1
0	1943	111.600198918134	2
0	1946	111.699365584801	0
0	1948	111.804685891973	1
0	1950	111.90385255864	0
0	1952	112.029774975151	1
0	1954	112.03091009662	2
0	1957	112.130076763287	0
0	1959	112.226734055078	1
0	1961	112.325900721745	0
0	1963	112.617975071837	1
0	1965	112.717141738504	0
0	1967	112.806859543323	1
0	1969	112.90602620999	0
0	1971	113.293009786807	1
0	1973	113.392176453474	0
0	1975	113.909192236339	1
0	1977	113.989361680077	2
0	1980	114.088528346744	0
0	1982	114.33400555357	1
0	1984	114.433172220237	0
0	1986	115.014058301105	1
0	1988	115.044065261521	2
0	1991	115.143231928188	0
0	1993	115.259974046745	1
0	1995	115.359140713412	0
0	1997	115.972401826122	1
0	1999	116.070250704908	2
0	2002	116.169417371575	0
0	2004	116.41359949805	1
0	2006	116.512766164717	0
0	2008	116.524009720603	1
0	2010	116.62317638727	0
0	2012	116.651802697163	1
0	2014	116.66355103285	2
0	2017	116.762717699517	0
0	2019	117.037347242992	1
0	2021	117.136513909659	0
0	2023	117.143163091626	1
0	2025	117.242329758293	0
0	2027	117.624070254892	1
0	2029	117.723236921559	0
0	2031	118.058320159094	1
0	2033	118.157486825761	0
0	2035	118.427837568543	1
0	2037	118.439154000422	2
0	2040	118.538320667089	0
0	2042	118.546270263769	1
0	2044	118.645436930436	0
0	2046	118.68974522288	1
0	2048	118.768765474566	2
0	2051	118.867932141233	0
0	2053	119.3128350489	1
0	2055	119.412001715567	0
0	2057	119.49511930459	1
0	2059	119.594285971257	0
0	2061	119.683247692863	1
0	2063	119.78241435953	0
0	2065	120.491991372636	1
0	2067	120.591158039303	0
0	2069	120.650008726239	1
0	2071	120.667147699852	2
0	2074	120.763414558429	2
0	2077	120.862581225096	0
0	2079	121.227532558891	1
0	2081	121.326699225558	0
0	2083	121.381610364501	1
0	2085	121.480777031168	0
0	2087	121.656431017719	1
0	2089	121.66334705275	2
0	2091	121.683801975908	2
0	2095	121.782968642575	0
0	2097	122.00060037613	1
0	2099	122.029105271329	2
0	2102	122.128271937996	0
0	2104	122.220380571795	1
0	2106	122.319547238462	0
0	2108	122.748570046136	1
0	2110	122.847736712803	0
0	2112	123.143863326792	1
0	2114	123.243029993459	0
0	2116	123.701969162766	1
0	2118	123.757580976019	2
0	2121	123.820414546826	2
0	2123	123.821501049017	2
0	2126	123.87862254238	2
0	2130	123.977789209047	0
0	2132	124.422864412091	1
0	2134	124.522031078758	0
0	2136	124.576773386513	1
0	2138	124.67594005318	0
0	2140	124.809959275664	1
0	2142	124.909125942331	0
0	2144	124.993917710315	1
0	2146	125.070405486354	2
0	2149	125.169572153021	0
0	2151	125.323186912982	1
0	2153	125.422353579649	0
0	2155	125.486777989153	1
0	2157	125.58594465582	0
0	2159	125.670846352899	1
0	2161	125.725033477718	2
0	2164	125.773456422195	2
0	2167	125.872623088862	0
0	2169	126.440456657359	1
0	2171	126.539623324026	0
0	2173	126.617441940196	1
0	2175	126.716608606863	0
0	2177	126.755092712324	1
0	2179	126.827648796518	2
0	2181	126.833536431652	2
0	2185	126.932703098319	0
0	2187	126.936958744283	1
0	2189	126.955204914843	2
0	2192	127.05437158151	0
0	2194	127.150818360463	1
0	2196	127.24998502713	0
0	2198	127.496052622576	1
0	2200	127.518165243306	2
0	2202	127.525073195808	2
0	2206	127.624239862475	0
0	2208	127.97702008192	1
0	2210	127.978995647192	2
0	2213	128.078162313859	0
0	2215	128.083538152347	1
0	2217	128.182704819014	0
0	2219	128.300476025359	1
0	2221	128.399642692026	0
0	2223	128.776937953139	1
0	2225	128.876104619806	0
0	2227	128.975233335943	1
0	2229	128.980751717986	2
0	2231	129.01398528228	2
0	2234	129.076591113699	2
0	2238	129.175757780366	0
0	2240	129.490267639613	1
0	2242	129.58943430628	0
0	2244	129.767071264839	1
0	2246	129.866237931506	0
0	2248	129.881844270424	1
0	2250	129.981010937091	0
0	2252	130.408233197069	1
0	2254	130.507399863736	0
0	2256	130.594688916201	1
0	2258	130.693855582868	0
0	2260	130.745746003151	1
0	2262	130.844912669818	0
0	2264	131.830609709835	1
0	2266	131.873744126501	2
0	2269	131.972910793168	0
0	2271	132.303163142301	1
0	2273	132.402329808968	0
0	2275	132.678834412638	1
0	2277	132.710949231246	2
0	2279	132.727552001078	2
0	2283	132.826718667745	0
0	2285	133.032825559644	1
0	2287	133.131992226311	0
0	2289	133.45727100286	1
0	2291	133.554325362941	2
0	2294	133.653492029608	0
0	2296	133.885178457048	1
0	2298	133.96819201822	2
0	2301	134.004156572492	2
0	2304	134.103323239159	0
0	2306	134.104847622771	1
0	2308	134.128856527186	2
0	2311	134.228023193853	0
0	2313	134.262852091336	1
0	2315	134.276776199722	2
0	2318	134.375942866389	0
0	2320	134.462619657195	1
0	2322	134.561786323862	0
0	2324	135.283209152428	1
0	2326	135.328102505357	2
0	2329	135.394090912076	2
0	2332	135.493257578743	0
0	2334	135.597871482056	1
0	2336	135.60929237096	2
0	2338	135.635163694131	2
0	2342	135.733845001447	2
0	2345	135.777352263878	2
0	2348	135.863787415955	2
0	2351	135.962954082622	0
0	2353	136.068343963615	1
0	2355	136.167510630282	0
0	2357	136.842242149922	1
0	2359	136.939361930582	2
0	2362	137.038528597249	0
0	2364	137.204157157352	1
0	2366	137.303323824019	0
0	2368	137.418083547745	1
0	2370	137.517250214412	0
0	2372	137.580435646225	1
0	2374	137.679602312892	0
0	2376	137.768339977389	1
0	2378	137.867506644056	0
0	2380	138.127682982383	1
0	2382	138.22684964905	0
0	2384	138.358335887254	1
0	2386	138.457502553921	0
0	2388	138.480463585051	1
0	2390	138.579630251718	0
0	2392	138.639247856941	1
0	2394	138.718031314202	2
0	2397	138.798851988638	2
0	2399	138.800237275593	2
0	2402	138.842643853245	2
0	2406	138.941810519912	0
0	2408	139.201935515842	1
0	2410	139.301102182509	0
0	2412	139.37372104988	1
0	2414	139.472887716547	0
0	2416	139.773852598273	1
0	2418	139.871017310692	2
0	2421	139.970183977359	0
0	2423	140.029172686073	1
0	2425	140.12833935274	0
0	2427	140.166339668686	1
0	2429	140.265506335353	0
0	2431	140.510349584346	1
0	2433	140.563154751675	2
0	2436	140.662321418342	0