version 3
run PureAlohaExperiment-24-20260306-12:10:19-8840
attr configname PureAlohaExperiment
attr datetime 20260306-12:10:19
attr datetimef 20260306-121019
attr experiment PureAlohaExperiment
attr inifile omnetpp.ini
attr iterationvars "$numHosts=15, $iaMean=7"
attr iterationvarsd numHosts=15/iaMean=7
attr iterationvarsf numHosts=15,iaMean=7-
attr measurement "$numHosts=15, $iaMean=7"
attr network Aloha
attr processid 8840
attr repetition 0
attr replication #0
attr resultdir results
attr runnumber 24
attr seedset 24
itervar iaMean 7
itervar numHosts 15
config description "Channel utilization in the function of packet generation frequency"
config repeat 2
config sim-time-limit 90min
config Aloha.numHosts 15
config Aloha.host[*].iaTime exponential(7s)
config network Aloha
config Aloha.numHosts 20
config Aloha.slotTime 0s
config Aloha.txRate 9.6kbps
config Aloha.host[*].pkLenBits 952b
config **.x "uniform(0m, 1000m)"
config **.y "uniform(0m, 1000m)"
config **.animationHoldTimeOnCollision 0s
config **.idleAnimationSpeed 1
config **.transmissionEdgeAnimationSpeed 1e-6
config **.midTransmissionAnimationSpeed 1e-1

vector 0 Aloha.server serverChannelState:vector ETV
attr enum IDLE=0,TRANSMISSION=1,COLLISION=2
attr recordingmode vector
attr source channelState
attr title "Channel state"
vector 1 Aloha.host[0] radioState:vector ETV
attr enum IDLE=0,TRANSMIT=1
attr recordingmode vector
attr source state
attr title "Radio state"
vector 2 Aloha.host[1] radioState:vector ETV
attr enum IDLE=0,TRANSMIT=1
attr recordingmode vector
attr source state
attr title "Radio state"
vector 3 Aloha.host[2] radioState:vector ETV
attr enum IDLE=0,TRANSMIT=1
attr recordingmode vector
attr source state
attr title "Radio state"
vector 4 Aloha.host[3] radioState:vector ETV
attr enum IDLE=0,TRANSMIT=1
attr recordingmode vector
attr source state
attr title "Radio state"
vector 5 Aloha.host[4] radioState:vector ETV
attr enum IDLE=0,TRANSMIT=1
attr recordingmode vector
attr source state
attr title "Radio state"
vector 6 Aloha.host[5] radioState:vector ETV
attr enum IDLE=0,TRANSMIT=1
attr recordingmode vector
attr source state
attr title "Radio state"
vector 7 Aloha.host[6] radioState:vector ETV
attr enum IDLE=0,TRANSMIT=1
attr recordingmode vector
attr source state
attr title "Radio state"
vector 8 Aloha.host[7] radioState:vector ETV
attr enum IDLE=0,TRANSMIT=1
attr recordingmode vector
attr source state
attr title "Radio state"
vector 9 Aloha.host[8] radioState:vector ETV
attr enum IDLE=0,TRANSMIT=1
attr recordingmode vector
attr source state
attr title "Radio state"
vector 10 Aloha.host[9] radioState:vector ETV
attr enum IDLE=0,TRANSMIT=1
attr recordingmode vector
attr source state
attr title "Radio state"
vector 11 Aloha.host[10] radioState:vector ETV
attr enum IDLE=0,TRANSMIT=1
attr recordingmode vector
attr source state
attr title "Radio state"
vector 12 Aloha.host[11] radioState:vector ETV
attr enum IDLE=0,TRANSMIT=1
attr recordingmode vector
attr source state
attr title "Radio state"
vector 13 Aloha.host[12] radioState:vector ETV
attr enum IDLE=0,TRANSMIT=1
attr recordingmode vector
attr source state
attr title "Radio state"
vector 14 Aloha.host[13] radioState:vector ETV
attr enum IDLE=0,TRANSMIT=1
attr recordingmode vector
attr source state
attr title "Radio state"
vector 15 Aloha.host[14] radioState:vector ETV
attr enum IDLE=0,TRANSMIT=1
attr recordingmode vector
attr source state
attr title "Radio state"
vector 16 Aloha.server channelUtilizationVector:vector ETV
attr interpolationmode linear
attr recordingmode vector
attr source timeavg(receive)
attr title "channel utilization evolution"
0	0	0	0
0	2	2.557112511925	1
0	4	2.656279178592	0
0	6	2.988433934419	1
0	8	3.087600601086	0
0	10	4.248455004889	1
0	12	4.347621671556	0
0	14	4.639478607616	1
0	16	4.738645274283	0
0	18	5.026414076718	1
0	20	5.125580743385	0
0	22	5.360592249419	1
0	24	5.459758916086	0
0	26	5.474766739408	1
0	28	5.573933406075	0
0	30	5.633011795984	1
0	32	5.732178462651	0
0	34	5.774429897068	1
0	36	5.785695723189	2
0	39	5.884862389856	0
0	41	6.981933924053	1
0	43	7.08110059072	0
0	45	7.307781434577	1
0	47	7.406948101244	0
0	49	7.799065935359	1
0	51	7.898232602026	0
0	53	7.981269378414	1
0	55	8.080436045081	0
0	57	8.705655603585	1
0	59	8.804822270252	0
0	61	9.215471758995	1
0	63	9.314638425662	0
0	65	10.264850812611	1
0	67	10.364017479278	0
0	69	12.560042191085	1
0	71	12.659208857752	0
0	73	12.739594188506	1
0	75	12.838760855173	0
0	77	12.927144629692	1
0	79	12.950746272057	2
0	82	13.049912938724	0
0	84	13.506257884032	1
0	86	13.561346893924	2
0	89	13.660513560591	0
0	91	15.673831211871	1
0	93	15.772997878538	0
0	95	18.381533969824	1
0	97	18.480700636491	0
0	99	19.009913925209	1
0	101	19.109080591876	0
0	103	20.420332414256	1
0	105	20.519499080923	0
0	107	20.620506056533	1
0	109	20.7196727232	0
0	111	20.838052386739	1
0	113	20.937219053406	0
0	115	21.850739153309	1
0	117	21.906114498607	2
0	120	22.005281165274	0
0	122	22.832703401945	1
0	124	22.931870068612	0
0	126	23.279187543288	1
0	128	23.378354209955	0
0	130	23.385755592506	1
0	132	23.484922259173	0
0	134	23.531308208328	1
0	136	23.630474874995	0
0	138	24.776869536331	1
0	140	24.876036202998	0
0	142	25.44253066917	1
0	144	25.541697335837	0
0	146	25.587562335489	1
0	148	25.674389305628	2
0	151	25.773555972295	0
0	153	26.059466575631	1
0	155	26.158633242298	0
0	157	26.199666176889	1
0	159	26.298832843556	0
0	161	26.767250317619	1
0	163	26.866416984286	0
0	165	27.075763008217	1
0	167	27.086631032557	2
0	170	27.185797699224	0
0	172	27.211819426989	1
0	174	27.310986093656	0
0	176	27.341207355152	1
0	178	27.440374021819	0
0	180	27.487177401921	1
0	182	27.586344068588	0
0	184	27.677475895738	1
0	186	27.733987113704	2
0	189	27.833153780371	0
0	191	29.086073308024	1
0	193	29.185239974691	0
0	195	30.641351671142	1
0	197	30.739484539731	2
0	200	30.838651206398	0
0	202	31.461286063359	1
0	204	31.560452730026	0
0	206	31.730185270891	1
0	208	31.829351937558	0
0	210	32.256158387535	1
0	212	32.355325054202	0
0	214	32.404238981027	1
0	216	32.503405647694	0
0	218	32.517582916601	1
0	220	32.616749583268	0
0	222	32.883247421173	1
0	224	32.980956243946	2
0	227	33.080122910613	0
0	229	33.33102712413	1
0	231	33.430193790797	0
0	233	33.761505194831	1
0	235	33.845217190283	2
0	238	33.94438385695	0
0	240	33.954109101285	1
0	242	34.053275767952	0
0	244	34.749747599179	1
0	246	34.848914265846	0
0	248	35.567211717721	1
0	250	35.666378384388	0
0	252	35.793873611155	1
0	254	35.893040277822	0
0	256	36.974246929261	1
0	258	37.073413595928	0
0	260	37.831772855692	1
0	262	37.930939522359	0
0	264	38.527836346404	1
0	266	38.627003013071	0
0	268	38.781008065172	1
0	270	38.880174731839	0
0	272	39.680944114087	1
0	274	39.712041021136	2
0	277	39.811207687803	0
0	279	41.856876088426	1
0	281	41.956042755093	0
0	283	42.360271050544	1
0	285	42.459437717211	0
0	287	42.834904044447	1
0	289	42.934070711114	0
0	291	44.266446557197	1
0	293	44.365613223864	0
0	295	44.64122883414	1
0	297	44.740395500807	0
0	299	44.817267847133	1
0	301	44.9164345138	0
0	303	45.577262102852	1
0	305	45.676428769519	0
0	307	45.764465751157	1
0	309	45.863632417824	0
0	311	46.087237742207	1
0	313	46.186404408874	0
0	315	46.455252863524	1
0	317	46.554419530191	0
0	319	46.886995783452	1
0	321	46.986162450119	0
0	323	47.301808489084	1
0	325	47.400975155751	0
0	327	47.448470094487	1
0	329	47.477283198042	2
0	332	47.576449864709	0
0	334	47.948600023318	1
0	336	48.047766689985	0
0	338	48.311928873038	1
0	340	48.411095539705	0
0	342	48.820808377337	1
0	344	48.919975044004	0
0	346	49.095101274246	1
0	348	49.194267940913	0
0	350	49.223503954118	1
0	352	49.322670620785	0
0	354	49.786030008817	1
0	356	49.885196675484	0
0	358	49.935971997866	1
0	360	50.035138664533	0
0	362	50.509581500696	1
0	364	50.608748167363	0
0	366	51.659586411936	1
0	368	51.758753078603	0
0	370	52.106640442307	1
0	372	52.205807108974	0
0	374	52.346129706742	1
0	376	52.445296373409	0
0	378	52.866551582573	1
0	380	52.96571824924	0
0	382	53.377556846225	1
0	384	53.476723512892	0
0	386	54.335505371154	1
0	388	54.434672037821	0
0	390	54.597362017296	1
0	392	54.696528683963	0
0	394	54.718063273783	1
0	396	54.750451279964	2
0	399	54.849617946631	0
0	401	55.554113608835	1
0	403	55.653280275502	0
0	405	56.783574400248	1
0	407	56.882741066915	0
0	409	57.34047896685	1
0	411	57.439645633517	0
0	413	57.846154031108	1
0	415	57.945320697775	0
0	417	59.183529126081	1
0	419	59.282695792748	0
0	421	60.667281699399	1
0	423	60.766448366066	0
0	425	62.179783179974	1
0	427	62.278949846641	0
0	429	62.359853173671	1
0	431	62.459019840338	0
0	433	62.550284971331	1
0	435	62.649451637998	0
0	437	63.080138653989	1
0	439	63.179305320656	0
0	441	63.717999899547	1
0	443	63.817166566214	0
0	445	65.108140572636	1
0	447	65.207307239303	0
0	449	65.867946776476	1
0	451	65.967113443143	0
0	453	66.611045965507	1
0	455	66.710212632174	0
0	457	66.971997787513	1
0	459	67.07116445418	0
0	461	67.929441446713	1
0	463	67.957820901008	2
0	466	68.056987567675	0
0	468	68.335919083919	1
0	470	68.435085750586	0
0	472	68.588078577406	1
0	474	68.597151128518	2
0	477	68.696317795185	0
0	479	69.045782151878	1
0	481	69.144948818545	0
0	483	69.259570525152	1
0	485	69.358737191819	0
0	487	69.953809420318	1
0	489	70.020548594083	2
0	492	70.11971526075	0
0	494	70.214791577468	1
0	496	70.313958244135	0
0	498	70.527672603315	1
0	500	70.626839269982	0
0	502	71.533799804776	1
0	504	71.632966471443	0
0	506	71.672392249866	1
0	508	71.771558916533	0
0	510	72.282794865632	1
0	512	72.381961532299	0
0	514	73.02813144449	1
0	516	73.127298111157	0
0	518	73.353690476145	1
0	520	73.452857142812	0
0	522	73.621344578209	1
0	524	73.720511244876	0
0	526	73.938610655488	1
0	528	73.982865404696	2
0	531	74.082032071363	0
0	533	74.455819375909	1
0	535	74.554986042576	0
0	537	76.135353489518	1
0	539	76.234520156185	0
0	541	77.43258901026	1
0	543	77.531755676927	0
0	545	77.621533700788	1
0	547	77.720700367455	0
0	549	77.922842953386	1
0	551	78.022009620053	0
0	553	78.108982612864	1
0	555	78.208149279531	0
0	557	78.739592021648	1
0	559	78.838758688315	0
0	561	79.531650110117	1
0	563	79.630816776784	0
0	565	80.163658180582	1
0	567	80.262824847249	0
0	569	80.71226549612	1
0	571	80.811432162787	0
0	573	80.862461017872	1
0	575	80.961627684539	0
0	577	81.095665125081	1
0	579	81.194831791748	0
0	581	84.013240052797	1
0	583	84.112406719464	0
0	585	84.360565726389	1
0	587	84.459732393056	0
0	589	84.70861934024	1
0	591	84.807786006907	0
0	593	85.547891817571	1
0	595	85.647058484238	0
0	597	85.760600860889	1
0	599	85.832058148306	2
0	601	85.839572688734	2
0	605	85.938739355401	0
0	607	86.01256699367	1
0	609	86.111733660337	0
0	611	86.295599506939	1
0	613	86.394766173606	0
0	615	86.488815549883	1
0	617	86.58798221655	0
0	619	86.656051044216	1
0	621	86.746855669461	2
0	624	86.846022336128	0
0	626	87.059306064147	1
0	628	87.158472730814	0
0	630	87.203772800542	1
0	632	87.225262716716	2
0	635	87.324429383383	0
0	637	87.396773008415	1
0	639	87.495939675082	0
0	641	88.132345381527	1
0	643	88.231512048194	0
0	645	88.361207502214	1
0	647	88.460374168881	0
0	649	90.235860248282	1
0	651	90.335026914949	0
0	653	90.428619179558	1
0	655	90.443697448579	2
0	658	90.542864115246	0
0	660	90.887768102198	1
0	662	90.986934768865	0
0	664	91.361322590834	1
0	666	91.460489257501	0
0	668	91.519629448157	1
0	670	91.618796114824	0
0	672	91.62332715958	1
0	674	91.722493826247	0
0	676	91.910940402965	1
0	678	92.010107069632	0
0	680	92.337903456222	1
0	682	92.437070122889	0
0	684	92.539753303766	1
0	686	92.594087994428	2
0	688	92.620012120169	2
0	692	92.713733626514	2
0	695	92.812900293181	0
0	697	93.616683627447	1
0	699	93.715850294114	0
0	701	93.963308437579	1
0	703	94.062475104246	0
0	705	94.378917890853	1
0	707	94.47808455752	0
0	709	94.761867144892	1
0	711	94.861033811559	0
0	713	94.88167651175	1
0	715	94.980843178417	0
0	717	95.082820533252	1
0	719	95.181987199919	0
0	721	95.4078810385	1
0	723	95.507047705167	0
0	725	95.901339056696	1
0	727	95.923115483923	2
0	730	96.02228215059	0
0	732	96.122059942988	1
0	734	96.221226609655	0
0	736	96.419839804638	1
0	738	96.519006471305	0
0	740	97.273417697963	1
0	742	97.37258436463	0
0	744	99.027566664809	1
0	746	99.126733331476	0
0	748	99.37092083185	1
0	750	99.470087498517	0
0	752	99.611936018828	1
0	754	99.711102685495	0
0	756	99.763524840374	1
0	758	99.862691507041	0
0	760	100.007840511487	1
0	762	100.107007178154	0
0	764	100.776256635721	1
0	766	100.822221497226	2
0	769	100.921388163893	0
0	771	101.030907540047	1
0	773	101.130074206714	0
0	775	103.286101981963	1
0	777	103.38526864863	0
0	779	103.519582427619	1
0	781	103.618749094286	0
0	783	104.652014756926	1
0	785	104.751181423593	0
0	787	105.01804982205	1
0	789	105.117216488717	0
0	791	106.134878741041	1
0	793	106.234045407708	0
0	795	106.840703461617	1
0	797	106.939870128284	0
0	799	106.956215480569	1
0	801	107.055382147236	0
0	803	107.955691038805	1
0	805	108.054857705472	0
0	807	108.093967899519	1
0	809	108.193134566186	0
0	811	108.979877289662	1
0	813	109.079043956329	0
0	815	109.14528527243	1
0	817	109.153271129407	2
0	820	109.252437796074	0
0	822	109.620605877268	1
0	824	109.719772543935	0
0	826	109.856857191586	1
0	828	109.956023858253	0
0	830	110.582052153216	1
0	832	110.681218819883	0
0	834	111.406752740829	1
0	836	111.505919407496	0
0	838	111.764782763968	1
0	840	111.863949430635	0
0	842	112.327443725969	1
0	844	112.426610392636	0
0	846	112.991311885863	1
0	848	113.09047855253	0
0	850	113.994576008543	1
0	852	114.09374267521	0
0	854	114.342349634231	1
0	856	114.441516300898	0
0	858	114.617537920484	1
0	860	114.636975395518	2
0	863	114.736142062185	0
0	865	115.527783669064	1
0	867	115.626950335731	0
0	869	115.810702325855	1
0	871	115.909868992522	0
0	873	116.073583834576	1
0	875	116.172750501243	0
0	877	117.075630774804	1
0	879	117.174797441471	0
0	881	118.786463363966	1
0	883	118.885630030633	0
0	885	119.217710378975	1
0	887	119.316877045642	0
0	889	119.499887156839	1
0	891	119.599053823506	0
0	893	119.824424385523	1
0	895	119.92359105219	0
0	897	120.601598896264	1
0	899	120.700765562931	0
0	901	120.741297983893	1
0	903	120.84046465056	0
0	905	121.142147277692	1
0	907	121.241313944359	0
0	909	121.244427564478	1
0	911	121.343594231145	0
0	913	121.737562011581	1
0	915	121.824245036764	2
0	918	121.923411703431	0
0	920	122.74517257779	1
0	922	122.844339244457	0
0	924	123.16339143946	1
0	926	123.262558106127	0
0	928	123.851535972012	1
0	930	123.950702638679	0
0	932	124.197244746799	1
0	934	124.296411413466	0
0	936	124.348353411392	1
0	938	124.447520078059	0
0	940	125.676669605015	1
0	942	125.775836271682	0
0	944	126.152803886024	1
0	946	126.251970552691	0
0	948	126.995756395256	1
0	950	127.094923061923	0
0	952	128.252824889335	1
0	954	128.273852074071	2
0	957	128.373018740738	0
0	959	128.816998559896	1
0	961	128.916165226563	0
0	963	129.4327945938	1
0	965	129.531961260467	0
0	967	130.025561512165	1
0	969	130.115344175113	2
0	972	130.21451084178	0
0	974	130.966084371083	1
0	976	131.06525103775	0
0	978	131.248657041023	1
0	980	131.34782370769	0
0	982	131.777581670265	1
0	984	131.876748336932	0
0	986	132.139420114359	1
0	988	132.238586781026	0
0	990	132.5259180431	1
0	992	132.60315992056	2
0	995	132.702326587227	0
0	997	133.608844438114	1
0	999	133.708011104781	0
0	1001	134.034531842872	1
0	1003	134.133698509539	0
0	1005	135.181019795388	1
0	1007	135.265039213181	2
0	1010	135.364205879848	0
0	1012	135.84910552326	1
0	1014	135.948272189927	0
0	1016	136.079763063503	1
0	1018	136.17892973017	0
0	1020	136.594496357462	1
0	1022	136.693663024129	0
0	1024	137.066060897825	1
0	1026	137.073781577957	2
0	1028	137.139971543011	2
0	1032	137.239138209678	0
0	1034	137.349615161095	1
0	1036	137.448781827762	0
0	1038	138.375184813953	1
0	1040	138.47435148062	0
0	1042	139.09449384615	1
0	1044	139.165006544293	2
0	1047	139.26417321096	0
0	1049	140.211668746488	1
0	1051	140.310835413155	0
0	1053	140.378953385038	1
0	1055	140.478120051705	0
0	1057	141.552456380017	1
0	1059	141.651623046684	0
0	1061	142.169253219125	1
0	1063	142.268419885792	0
0	1065	143.734320498299	1
0	1067	143.833487164966	0
0	1069	144.000939109019	1
0	1071	144.100105775686	0
0	1073	144.162347773908	1
0	1075	144.261514440575	0
0	1077	144.674824142156	1
0	1079	144.773990808823	0
0	1081	144.796054676617	1
0	1083	144.895221343284	0
0	1085	145.420578269902	1
0	1087	145.519744936569	0
0	1089	145.628486330685	1
0	1091	145.727652997352	0
0	1093	146.700333725777	1
0	1095	146.799500392444	0
0	1097	148.252340295226	1
0	1099	148.298311306328	2
0	1102	148.397477972995	0
0	1104	148.418181013643	1
0	1106	148.51734768031	0
0	1108	148.60644407563	1
0	1110	148.705610742297	0
0	1112	148.74676326937	1
0	1114	148.845929936037	0
0	1116	149.413490357944	1
0	1118	149.512657024611	0
0	1120	149.683408147472	1
0	1122	149.782574814139	0
0	1124	150.117486980911	1
0	1126	150.216653647578	0
0	1128	151.862989569132	1
0	1130	151.946310987746	2
0	1133	152.045477654413	0
0	1135	152.147544794517	1
0	1137	152.246711461184	0
0	1139	152.453270649248	1
0	1141	152.552437315915	0
0	1143	152.679954575463	1
0	1145	152.77912124213	0
0	1147	153.453418223998	1
0	1149	153.552584890665	0
0	1151	153.637920487659	1
0	1153	153.729179375552	2
0	1156	153.779568466562	2
0	1159	153.878735133229	0
0	1161	153.90174605225	1
0	1163	154.000912718917	0
0	1165	154.411936692518	1
0	1167	154.511103359185	0
0	1169	155.063642599057	1
0	1171	155.162809265724	0
0	1173	156.319043615193	1
0	1175	156.41821028186	0
0	1177	157.347351135352	1
0	1179	157.446517802019	0
0	1181	158.789127037148	1
0	1183	158.888293703815	0
0	1185	160.053365138153	1
0	1187	160.124005393824	2
0	1190	160.223172060491	0
0	1192	160.598206971006	1
0	1194	160.697373637673	0
0	1196	160.91406918775	1
0	1198	161.013235854417	0
0	1200	161.634790864998	1
0	1202	161.717093057289	2
0	1205	161.802944446036	2
0	1208	161.902111112703	0
0	1210	161.957770003937	1
0	1212	162.056936670604	0
0	1214	162.123324145248	1
0	1216	162.222490811915	0
0	1218	162.440660501445	1
0	1220	162.539827168112	0
0	1222	164.416461030105	1
0	1224	164.515627696772	0
0	1226	164.817482921988	1
0	1228	164.916649588655	0
0	1230	164.998908439395	1
0	1232	165.098075106062	0
0	1234	165.342869999023	1
0	1236	165.44203666569	0
0	1238	166.806520888662	1
0	1240	166.905687555329	0
0	1242	168.193583257182	1
0	1244	168.292749923849	0
0	1246	168.389015084347	1
0	1248	168.488181751014	0
0	1250	168.951761611348	1
0	1252	169.050928278015	0
0	1254	169.88818887154	1
0	1256	169.987355538207	0
0	1258	170.117310226895	1
0	1260	170.185925208388	2
0	1263	170.285091875055	0
0	1265	170.496028092911	1
0	1267	170.595194759578	0
0	1269	170.698832644232	1
0	1271	170.797999310899	0
0	1273	171.909979435975	1
0	1275	171.956650101478	2
0	1278	172.055816768145	0
0	1280	172.233984510878	1
0	1282	172.333151177545	0
0	1284	173.264437777596	1
0	1286	173.363604444263	0
0	1288	173.397953265399	1
0	1290	173.497119932066	0
0	1292	174.614408939087	1
0	1294	174.713575605754	0
0	1296	174.869347261468	1
0	1298	174.934312961238	2
0	1301	175.033479627905	0
0	1303	175.690797873394	1
0	1305	175.755942073876	2
0	1308	175.855108740543	0
0	1310	175.906106956215	1
0	1312	176.005273622882	0
0	1314	176.274567173495	1
0	1316	176.373733840162	0
0	1318	176.714202183125	1
0	1320	176.813368849792	0
0	1322	178.786857524011	1
0	1324	178.886024190678	0
0	1326	179.448722876695	1
0	1328	179.547889543362	0
0	1330	179.97346696631	1
0	1332	180.072633632977	0
0	1334	180.344139706304	1
0	1336	180.443306372971	0
0	1338	181.198451613471	1
0	1340	181.252255933146	2
0	1343	181.332652273888	2
0	1346	181.42108412089	2
0	1349	181.520250787557	0
0	1351	181.523734683813	1
0	1353	181.62290135048	0
0	1355	181.8460367822	1
0	1357	181.945203448867	0
0	1359	182.032221251408	1
0	1361	182.131387918075	0
0	1363	182.679977646339	1
0	1365	182.779144313006	0
0	1367	182.93967764687	1
0	1369	182.969695404555	2
0	1372	183.068862071222	0
0	1374	184.365911829116	1
0	1376	184.465078495783	0
0	1378	184.708028329517	1
0	1380	184.807194996184	0
0	1382	185.053659191965	1
0	1384	185.1411184432	2
0	1387	185.192203711474	2
0	1390	185.291370378141	0
0	1392	185.368895680626	1
0	1394	185.468062347293	0
0	1396	185.817709546396	1
0	1398	185.837701738788	2
0	1401	185.936868405455	0
0	1403	186.461923983523	1
0	1405	186.525532525627	2
0	1408	186.624699192294	0
0	1410	188.029315456937	1
0	1412	188.128482123604	0
0	1414	188.144223675878	1
0	1416	188.243390342545	0
0	1418	188.776957597049	1
0	1420	188.80103194567	2
0	1423	188.900198612337	0
0	1425	189.228331049912	1
0	1427	189.32077139857	2
0	1430	189.419938065237	0
0	1432	189.856899606665	1
0	1434	189.956066273332	0
0	1436	190.55808401059	1
0	1438	190.587203712499	2
0	1441	190.686370379166	0
0	1443	191.083788247362	1
0	1445	191.182954914029	0
0	1447	191.351137399091	1
0	1449	191.450304065758	0
0	1451	192.486380943501	1
0	1453	192.585547610168	0
0	1455	193.0979901635	1
0	1457	193.197156830167	0
0	1459	193.554732823733	1
0	1461	193.6538994904	0
0	1463	193.772012638941	1
0	1465	193.871179305608	0
0	1467	193.951168852865	1
0	1469	194.050335519532	0
0	1471	194.850512799413	1
0	1473	194.94967946608	0
0	1475	195.810167561673	1
0	1477	195.884516470767	2
0	1480	195.983683137434	0
0	1482	196.081053691239	1
0	1484	196.180220357906	0
0	1486	197.135349298492	1
0	1488	197.234515965159	0
0	1490	197.557751396885	1
0	1492	197.656918063552	0
0	1494	197.877345339282	1
0	1496	197.976512005949	0
0	1498	198.32427051997	1
0	1500	198.423437186637	0
0	1502	198.501617710177	1
0	1504	198.569036653431	2
0	1506	198.570235566056	2
0	1510	198.669402232723	0
0	1512	198.875715365499	1
0	1514	198.974882032166	0
0	1516	199.376259403774	1
0	1518	199.475426070441	0
0	1520	199.902347812245	1
0	1522	200.001514478912	0
0	1524	200.057160580737	1
0	1526	200.156327247404	0
0	1528	201.089281016867	1
0	1530	201.188447683534	0
0	1532	201.287441389289	1
0	1534	201.386608055956	0
0	1536	201.410107343869	1
0	1538	201.446980757719	2
0	1541	201.546147424386	0
0	1543	201.973807209011	1
0	1545	202.072973875678	0
0	1547	202.226982590841	1
0	1549	202.283413498747	2
0	1552	202.382580165414	0
0	1554	202.660757737638	1
0	1556	202.759924404305	0
0	1558	205.363461234423	1
0	1560	205.46262790109	0
0	1562	205.532735671797	1
0	1564	205.631902338464	0
0	1566	206.121860021539	1
0	1568	206.221026688206	0
0	1570	206.966863571568	1
0	1572	207.066030238235	0
0	1574	207.470937275787	1
0	1576	207.570103942454	0
0	1578	208.868848406395	1
0	1580	208.921025529417	2
0	1583	209.020192196084	0
0	1585	209.147117765677	1
0	1587	209.246284432344	0
0	1589	209.435232452177	1
0	1591	209.534399118844	0
0	1593	209.583756674247	1
0	1595	209.615804844241	2
0	1598	209.714971510908	0
0	1600	210.353303526908	1
0	1602	210.452470193575	0
0	1604	210.775114675285	1
0	1606	210.874281341952	0
0	1608	211.675880755969	1
0	1610	211.775047422636	0
0	1612	211.793088976744	1
0	1614	211.892255643411	0
0	1616	212.43730775708	1
0	1618	212.536474423747	0
0	1620	212.992153945638	1
0	1622	213.091320612305	0
0	1624	213.172443098181	1
0	1626	213.17549371003	2
0	1629	213.274660376697	0
0	1631	213.280429885803	1
0	1633	213.37959655247	0
0	1635	214.03514335381	1
0	1637	214.134310020477	0
0	1639	215.746999258877	1
0	1641	215.846165925544	0
0	1643	216.764346533918	1
0	1645	216.863513200585	0
0	1647	216.905467583603	1
0	1649	217.00463425027	0
0	1651	217.619968107413	1
0	1653	217.71913477408	0
0	1655	218.36933856832	1
0	1657	218.468505234987	0
0	1659	218.989014009273	1
0	1661	219.073600502557	2
0	1663	219.075433644826	2
0	1667	219.174600311493	0
0	1669	219.330183183814	1
0	1671	219.429349850481	0
0	1673	220.005220523035	1
0	1675	220.104387189702	0
0	1677	220.369667935006	1
0	1679	220.468834601673	0
0	1681	221.078084879895	1
0	1683	221.177251546562	0
0	1685	221.546805086022	1
0	1687	221.645971752689	0
0	1689	221.699061052346	1
0	1691	221.743768351009	2
0	1694	221.842935017676	0
0	1696	223.141239368389	1
0	1698	223.191018063541	2
0	1701	223.290184730208	0
0	1703	223.358434315218	1
0	1705	223.457600981885	0
0	1707	224.167617077452	1
0	1709	224.266783744119	0
0	1711	225.380448411563	1
0	1713	225.407445211861	2
0	1716	225.506611878528	0
0	1718	225.717377404923	1
0	1720	225.81654407159	0
0	1722	225.843555129932	1
0	1724	225.942721796599	0
0	1726	226.108029765832	1
0	1728	226.207196432499	0
0	1730	227.086997912238	1
0	1732	227.186164578905	0
0	1734	227.873245749563	1
0	1736	227.97241241623	0
0	1738	228.210616283769	1
0	1740	228.300156480342	2
0	1743	228.364175602732	2
0	1745	228.366565874348	2
0	1748	228.457168696714	2
0	1752	228.556335363381	0
0	1754	229.208819992228	1
0	1756	229.307986658895	0
0	1758	229.936380459451	1
0	1760	230.035547126118	0
0	1762	230.207529164261	1
0	1764	230.306695830928	0
0	1766	230.345893697811	1
0	1768	230.384292297352	2
0	1771	230.483458964019	0
0	1773	230.554264592673	1
0	1775	230.65343125934	0
0	1777	230.95310426497	1
0	1779	231.052270931637	0
0	1781	233.34622938025	1
0	1783	233.445396046917	0
0	1785	233.683956995143	1
0	1787	233.78312366181	0
0	1789	234.135124860032	1
0	1791	234.143295452823	2
0	1794	234.24246211949	0
0	1796	234.266097550537	1
0	1798	234.348362132869	2
0	1801	234.447528799536	0
0	1803	236.427984976001	1
0	1805	236.527151642668	0
0	1807	237.207341755784	1
0	1809	237.306508422451	0
0	1811	238.351149468436	1
0	1813	238.450316135103	0
0	1815	238.772268496927	1
0	1817	238.871435163594	0
0	1819	239.74668728141	1
0	1821	239.845853948077	0
0	1823	240.685892708639	1
0	1825	240.785059375306	0
0	1827	241.640711999052	1
0	1829	241.739878665719	0
0	1831	241.786073308703	1
0	1833	241.88523997537	0
0	1835	242.357579376801	1
0	1837	242.456746043468	0
0	1839	244.070504532425	1
0	1841	244.169671199092	0
0	1843	244.41979349404	1
0	1845	244.433337836707	2
0	1848	244.532504503374	0
0	1850	244.96412243312	1
0	1852	245.063289099787	0
0	1854	246.790499114579	1
0	1856	246.889665781246	0
0	1858	247.353359190559	1
0	1860	247.365965494693	2
0	1863	247.46513216136	0
0	1865	247.849725050093	1
0	1867	247.94889171676	0
0	1869	248.53984454966	1
0	1871	248.639011216327	0
0	1873	249.109041954963	1
0	1875	249.20820862163	0
0	1877	250.982954850073	1
0	1879	251.08212151674	0
0	1881	251.499387599785	1
0	1883	251.527757745633	2
0	1886	251.6269244123	0
0	1888	251.834673985823	1
0	1890	251.93384065249	0
0	1892	252.833373274852	1
0	1894	252.890968399328	2
0	1897	252.990135065995	0
0	1899	253.12561470982	1
0	1901	253.224781376487	0
0	1903	253.311433268895	1
0	1905	253.410599935562	0
0	1907	255.845667165584	1
0	1909	255.911446000461	2
0	1912	255.972293879707	2
0	1915	256.071460546374	0
0	1917	256.147622768296	1
0	1919	256.246789434963	0
0	1921	257.391297932498	1
0	1923	257.490464599165	0
0	1925	259.124000993012	1
0	1927	259.223167659679	0
0	1929	260.226942708108	1
0	1931	260.326109374775	0
0	1933	260.516291705879	1
0	1935	260.615458372546	0
0	1937	260.663917826744	1
0	1939	260.763084493411	0
0	1941	261.109527209205	1
0	1943	261.208693875872	0
0	1945	262.046899241081	1
0	1947	262.146065907748	0
0	1949	262.184413835572	1
0	1951	262.27756792585	2
0	1954	262.376734592517	0
0	1956	263.240659740815	1
0	1958	263.339826407482	0
0	1960	263.649625370115	1
0	1962	263.748792036782	0
0	1964	264.142311235613	1
0	1966	264.24147790228	0
0	1968	264.969640419435	1
0	1970	265.068807086102	0
0	1972	265.351076919308	1
0	1974	265.450243585975	0
0	1976	267.046886310319	1
0	1978	267.146052976986	0
0	1980	267.146950275696	1
0	1982	267.246116942363	0
0	1984	267.606867813795	1
0	1986	267.706034480462	0
0	1988	268.33624242682	1
0	1990	268.372575180069	2
0	1993	268.471741846736	0
0	1995	268.591096020922	1
0	1997	268.690262687589	0
0	1999	268.806278964209	1
0	2001	268.905445630876	0
0	2003	268.941706395617	1
0	2005	269.006048695257	2
0	2008	269.105215361924	0
0	2010	269.182604780942	1
0	2012	269.281771447609	0
0	2014	269.38155164927	1
0	2016	269.391713079796	2
0	2018	269.407751829752	2
0	2022	269.506918496419	0
0	2024	269.543602711338	1
0	2026	269.642769378005	0
0	2028	269.659403261725	1
0	2030	269.668383599157	2
0	2033	269.767550265824	0
0	2035	270.011697076964	1
0	2037	270.051258901809	2
0	2039	270.099142810669	2
0	2042	270.112394852877	2
0	2044	270.128687322755	2
0	2049	270.227853989422	0
0	2051	270.615143408624	1
0	2053	270.714310075291	0
0	2055	271.017905741174	1
0	2057	271.117072407841	0
0	2059	271.641695095336	1
0	2061	271.740861762003	0
0	2063	272.268025902583	1
0	2065	272.36719256925	0
0	2067	272.943919840795	1
0	2069	273.043086507462	0
0	2071	273.176832062791	1
0	2073	273.275998729458	0
0	2075	273.834382123861	1
0	2077	273.933548790528	0
0	2079	274.298197965344	1
0	2081	274.397364632011	0
0	2083	274.511875446499	1
0	2085	274.585463432975	2
0	2088	274.684630099642	0
0	2090	275.774961069589	1
0	2092	275.874127736256	0
0	2094	277.28209138483	1
0	2096	277.381258051497	0
0	2098	277.422728775366	1
0	2100	277.521895442033	0
0	2102	277.693306106417	1
0	2104	277.792472773084	0
0	2106	278.507304149678	1
0	2108	278.606470816345	0
0	2110	278.690712955171	1
0	2112	278.789879621838	0
0	2114	279.588778318977	1
0	2116	279.687944985644	0
0	2118	279.769684177851	1
0	2120	279.868850844518	0
0	2122	280.352089261669	1
0	2124	280.379390469777	2
0	2127	280.478557136444	0
0	2129	281.149379432168	1
0	2131	281.248546098835	0
0	2133	281.656841734964	1
0	2135	281.756008401631	0
0	2137	282.275002283399	1
0	2139	282.374168950066	0
0	2141	283.240814162859	1
0	2143	283.339980829526	0
0	2145	283.709602287108	1
0	2147	283.808768953775	0
0	2149	284.27559583447	1
0	2151	284.374762501137	0
0	2153	284.389264936514	1
0	2155	284.479957990845	2
0	2158	284.579124657512	0
0	2160	284.702858759287	1
0	2162	284.802025425954	0
0	2164	285.154672137856	1
0	2166	285.253838804523	0
0	2168	285.33446947306	1
0	2170	285.433636139727	0
0	2172	285.532535829759	1
0	2174	285.631702496426	0
0	2176	285.78630411017	1
0	2178	285.885470776837	0
0	2180	286.260155295852	1
0	2182	286.359321962519	0
0	2184	286.388963287715	1
0	2186	286.488129954382	0
0	2188	287.917755667151	1
0	2190	288.016922333818	0
0	2192	288.187118100982	1
0	2194	288.286284767649	0
0	2196	289.315810125462	1
0	2198	289.414976792129	0
0	2200	289.575663090902	1
0	2202	289.674829757569	0
0	2204	290.231843063111	1
0	2206	290.315519137699	2