version 3
run PureAlohaExperiment-21-20260306-12:10:19-8840
attr configname PureAlohaExperiment
attr datetime 20260306-12:10:19
attr datetimef 20260306-121019
attr experiment PureAlohaExperiment
attr inifile omnetpp.ini
attr iterationvars "$numHosts=15, $iaMean=4"
attr iterationvarsd numHosts=15/iaMean=4
attr iterationvarsf numHosts=15,iaMean=4-
attr measurement "$numHosts=15, $iaMean=4"
attr network Aloha
attr processid 8840
attr repetition 1
attr replication #1
attr resultdir results
attr runnumber 21
attr seedset 21
itervar iaMean 4
itervar numHosts 15
config description "Channel utilization in the function of packet generation frequency"
config repeat 2
config sim-time-limit 90min
config Aloha.numHosts 15
config Aloha.host[*].iaTime exponential(4s)
config network Aloha
config Aloha.numHosts 20
config Aloha.slotTime 0s
config Aloha.txRate 9.6kbps
config Aloha.host[*].pkLenBits 952b
config **.x "uniform(0m, 1000m)"
config **.y "uniform(0m, 1000m)"
config **.animationHoldTimeOnCollision 0s
config **.idleAnimationSpeed 1
config **.transmissionEdgeAnimationSpeed 1e-6
config **.midTransmissionAnimationSpeed 1e-1

vector 0 Aloha.server serverChannelState:vector ETV
attr enum IDLE=0,TRANSMISSION=1,COLLISION=2
attr recordingmode vector
attr source channelState
attr title "Channel state"
vector 1 Aloha.host[0] radioState:vector ETV
attr enum IDLE=0,TRANSMIT=1
attr recordingmode vector
attr source state
attr title "Radio state"
vector 2 Aloha.host[1] radioState:vector ETV
attr enum IDLE=0,TRANSMIT=1
attr recordingmode vector
attr source state
attr title "Radio state"
vector 3 Aloha.host[2] radioState:vector ETV
attr enum IDLE=0,TRANSMIT=1
attr recordingmode vector
attr source state
attr title "Radio state"
vector 4 Aloha.host[3] radioState:vector ETV
attr enum IDLE=0,TRANSMIT=1
attr recordingmode vector
attr source state
attr title "Radio state"
vector 5 Aloha.host[4] radioState:vector ETV
attr enum IDLE=0,TRANSMIT=1
attr recordingmode vector
attr source state
attr title "Radio state"
vector 6 Aloha.host[5] radioState:vector ETV
attr enum IDLE=0,TRANSMIT=1
attr recordingmode vector
attr source state
attr title "Radio state"
vector 7 Aloha.host[6] radioState:vector ETV
attr enum IDLE=0,TRANSMIT=1
attr recordingmode vector
attr source state
attr title "Radio state"
vector 8 Aloha.host[7] radioState:vector ETV
attr enum IDLE=0,TRANSMIT=1
attr recordingmode vector
attr source state
attr title "Radio state"
vector 9 Aloha.host[8] radioState:vector ETV
attr enum IDLE=0,TRANSMIT=1
attr recordingmode vector
attr source state
attr title "Radio state"
vector 10 Aloha.host[9] radioState:vector ETV
attr enum IDLE=0,TRANSMIT=1
attr recordingmode vector
attr source state
attr title "Radio state"
vector 11 Aloha.host[10] radioState:vector ETV
attr enum IDLE=0,TRANSMIT=1
attr recordingmode vector
attr source state
attr title "Radio state"
vector 12 Aloha.host[11] radioState:vector ETV
attr enum IDLE=0,TRANSMIT=1
attr recordingmode vector
attr source state
attr title "Radio state"
vector 13 Aloha.host[12] radioState:vector ETV
attr enum IDLE=0,TRANSMIT=1
attr recordingmode vector
attr source state
attr title "Radio state"
vector 14 Aloha.host[13] radioState:vector ETV
attr enum IDLE=0,TRANSMIT=1
attr recordingmode vector
attr source state
attr title "Radio state"
vector 15 Aloha.host[14] radioState:vector ETV
attr enum IDLE=0,TRANSMIT=1
attr recordingmode vector
attr source state
attr title "Radio state"
vector 16 Aloha.server channelUtilizationVector:vector ETV
attr interpolationmode linear
attr recordingmode vector
attr source timeavg(receive)
attr title "channel utilization evolution"
0	0	0	0
0	2	1.262516118867	1
0	4	1.32537859668	2
0	7	1.375962513453	2
0	10	1.47512918012	0
0	12	1.939659731518	1
0	14	2.038826398185	0
0	16	2.101853852765	1
0	18	2.201020519432	0
0	20	2.768407556733	1
0	22	2.860656420957	2
0	25	2.959823087624	0
0	27	3.259973324238	1
0	29	3.359139990905	0
0	31	3.374888932005	1
0	33	3.474055598672	0
0	35	3.490619319465	1
0	37	3.589785986132	0
0	39	3.830133030732	1
0	41	3.929299697399	0
0	43	4.094041846045	1
0	45	4.193208512712	0
0	47	4.20209693769	1
0	49	4.301263604357	0
0	51	4.998122304922	1
0	53	5.009020101845	2
0	56	5.108186768512	0
0	58	5.529190799238	1
0	60	5.628357465905	0
0	62	5.690902253103	1
0	64	5.696860260212	2
0	66	5.775784622732	2
0	70	5.874951289399	0
0	72	6.248485135981	1
0	74	6.347651802648	0
0	76	6.501100268678	1
0	78	6.600266935345	0
0	80	6.682592437274	1
0	82	6.781759103941	0
0	84	7.32819050028	1
0	86	7.427357166947	0
0	88	7.699416715319	1
0	90	7.759912936717	2
0	93	7.859079603384	0
0	95	7.928209059604	1
0	97	8.027375726271	0
0	99	8.094141686885	1
0	101	8.193308353552	0
0	103	8.342244181788	1
0	105	8.441410848455	0
0	107	8.840487750145	1
0	109	8.939654416812	0
0	111	8.940309307605	1
0	113	9.039475974272	0
0	115	9.488187290382	1
0	117	9.587353957049	0
0	119	9.686697677516	1
0	121	9.785864344183	0
0	123	10.225455204234	1
0	125	10.324621870901	0
0	127	10.439949885195	1
0	129	10.539116551862	0
0	131	10.541398686985	1
0	133	10.640565353652	0
0	135	10.668156177048	1
0	137	10.767322843715	0
0	139	11.199479782273	1
0	141	11.29864644894	0
0	143	12.495480277356	1
0	145	12.594646944023	0
0	147	12.855702933487	1
0	149	12.880255717271	2
0	152	12.979422383938	0
0	154	12.987096461251	1
0	156	13.086263127918	0
0	158	13.126465184883	1
0	160	13.216878194756	2
0	163	13.316044861423	0
0	165	13.526294838374	1
0	167	13.625461505041	0
0	169	13.943538129366	1
0	171	14.01677548472	2
0	174	14.091443755087	2
0	177	14.190610421754	0
0	179	14.262537911147	1
0	181	14.287330478593	2
0	184	14.38649714526	0
0	186	15.406828766287	1
0	188	15.505995432954	0
0	190	15.597039012731	1
0	192	15.696205679398	0
0	194	16.319092465041	1
0	196	16.418259131708	0
0	198	16.588385801222	1
0	200	16.648279649001	2
0	203	16.747446315668	0
0	205	16.772390884825	1
0	207	16.804433414563	2
0	210	16.90360008123	0
0	212	17.138651819956	1
0	214	17.237818486623	0
0	216	18.193862790998	1
0	218	18.293029457665	0
0	220	18.805061980724	1
0	222	18.904228647391	0
0	224	19.240890034207	1
0	226	19.327005674169	2
0	229	19.426172340836	0
0	231	19.753673819006	1
0	233	19.852840485673	0
0	235	20.022166325695	1
0	237	20.121332992362	0
0	239	20.454572586442	1
0	241	20.553739253109	0
0	243	20.808030798618	1
0	245	20.907197465285	0
0	247	21.164390506462	1
0	249	21.263557173129	0
0	251	21.548176884497	1
0	253	21.647343551164	0
0	255	21.719079130539	1
0	257	21.818245797206	0
0	259	22.069003675729	1
0	261	22.168170342396	0
0	263	22.194551873061	1
0	265	22.22362270871	2
0	267	22.227231971284	2
0	270	22.315318934818	2
0	274	22.370130853298	2
0	277	22.469297519965	0
0	279	22.605694437272	1
0	281	22.704861103939	0
0	283	22.83473307724	1
0	285	22.903020366941	2
0	288	22.977325441377	2
0	291	23.065319213693	2
0	294	23.16448588036	0
0	296	23.914848506937	1
0	298	24.014015173604	0
0	300	24.431980664652	1
0	302	24.531147331319	0
0	304	24.890311406003	1
0	306	24.962824184949	2
0	309	25.061990851616	0
0	311	25.133466024024	1
0	313	25.162998030144	2
0	316	25.262164696811	0
0	318	25.281748280337	1
0	320	25.380914947004	0
0	322	25.389106718531	1
0	324	25.402083951135	2
0	327	25.501250617802	0
0	329	25.825178512997	1
0	331	25.924345179664	0
0	333	26.201126496856	1
0	335	26.300293163523	0
0	337	26.459919684525	1
0	339	26.559086351192	0
0	341	27.002193988642	1
0	343	27.101360655309	0
0	345	27.25275861251	1
0	347	27.351925279177	0
0	349	27.459281962948	1
0	351	27.558448629615	0
0	353	27.754082382613	1
0	355	27.85324904928	0
0	357	27.898088020919	1
0	359	27.970786694176	2
0	362	28.069953360843	0
0	364	28.294020120233	1
0	366	28.3931867869	0
0	368	28.787384392887	1
0	370	28.886551059554	0
0	372	29.000321331672	1
0	374	29.099487998339	0
0	376	29.171457244215	1
0	378	29.270623910882	0
0	380	29.321029885393	1
0	382	29.42019655206	0
0	384	29.949156432468	1
0	386	30.048323099135	0
0	388	30.266675430468	1
0	390	30.347931280118	2
0	393	30.447097946785	0
0	395	30.534164449463	1
0	397	30.63333111613	0
0	399	30.755521092658	1
0	401	30.854687759325	0
0	403	30.916716252971	1
0	405	30.989362460049	2
0	408	31.088529126716	0
0	410	31.209505777962	1
0	412	31.308672444629	0
0	414	31.339023641679	1
0	416	31.438190308346	0
0	418	31.834391540848	1
0	420	31.933558207515	0
0	422	31.946213693334	1
0	424	32.045380360001	0
0	426	32.567534926837	1
0	428	32.666701593504	0
0	430	32.671120947606	1
0	432	32.770287614273	0
0	434	32.800035173303	1
0	436	32.89920183997	0
0	438	32.899722237363	1
0	440	32.99888890403	0
0	442	33.661985605889	1
0	444	33.67708396131	2
0	447	33.776250627977	0
0	449	34.283217726509	1
0	451	34.382384393176	0
0	453	34.655601539987	1
0	455	34.754768206654	0
0	457	34.774782866758	1
0	459	34.862763215274	2
0	462	34.912009084622	2
0	465	35.011175751289	0
0	467	35.012492098495	1
0	469	35.111658765162	0
0	471	35.540440136207	1
0	473	35.631712999882	2
0	476	35.730879666549	0
0	478	35.979134873145	1
0	480	36.078301539812	0
0	482	36.309256369993	1
0	484	36.40842303666	0
0	486	36.681576856876	1
0	488	36.780743523543	0
0	490	37.248972558441	1
0	492	37.348139225108	0
0	494	37.538086797358	1
0	496	37.637253464025	0
0	498	37.873865355048	1
0	500	37.973032021715	0
0	502	38.030777133578	1
0	504	38.129943800245	0
0	506	38.255834502126	1
0	508	38.355001168793	0
0	510	38.651852158114	1
0	512	38.751018824781	0
0	514	38.769761606554	1
0	516	38.868928273221	0
0	518	39.040956858107	1
0	520	39.06425020395	2
0	523	39.163416870617	0
0	525	39.45849933225	1
0	527	39.555797793826	2
0	530	39.654964460493	0
0	532	39.802845842742	1
0	534	39.902012509409	0
0	536	40.41294749717	1
0	538	40.455932143374	2
0	541	40.555098810041	0
0	543	40.580778037502	1
0	545	40.588981649273	2
0	547	40.632501489579	2
0	549	40.663715266478	2
0	553	40.69481674426	2
0	557	40.793983410927	0
0	559	40.845250039016	1
0	561	40.905817571875	2
0	564	41.004984238542	0
0	566	41.383644634668	1
0	568	41.482811301335	0
0	570	42.080690240576	1
0	572	42.179856907243	0
0	574	42.814725062976	1
0	576	42.913891729643	0
0	578	43.057983910496	1
0	580	43.157150577163	0
0	582	43.304647913155	1
0	584	43.403814579822	0
0	586	43.790310349506	1
0	588	43.793463686192	2
0	590	43.795728872539	2
0	594	43.894895539206	0
0	596	44.05821871001	1
0	598	44.086153697753	2
0	601	44.18532036442	0
0	603	44.258170113414	1
0	605	44.357336780081	0
0	607	44.445182842871	1
0	609	44.467334486467	2
0	612	44.566501153134	0
0	614	44.737286950265	1
0	616	44.836453616932	0
0	618	45.123339601993	1
0	620	45.22250626866	0
0	622	45.522957608951	1
0	624	45.622124275618	0
0	626	45.695849528038	1
0	628	45.795016194705	0
0	630	45.876228582607	1
0	632	45.975395249274	0
0	634	46.776960954052	1
0	636	46.870735648191	2
0	639	46.969902314858	0
0	641	47.003511463805	1
0	643	47.02502278316	2
0	646	47.124189449827	0
0	648	47.526537900232	1
0	650	47.530209976533	2
0	652	47.605361939314	2
0	656	47.704528605981	0
0	658	48.07124082412	1
0	660	48.170407490787	0
0	662	48.180496322605	1
0	664	48.279662989272	0
0	666	49.249199738437	1
0	668	49.348366405104	0
0	670	49.446651272174	1
0	672	49.545817938841	0
0	674	49.550544453688	1
0	676	49.580274548495	2
0	678	49.610608413561	2
0	682	49.709775080228	0
0	684	49.920654076253	1
0	686	50.01982074292	0
0	688	50.192143269758	1
0	690	50.291309936425	0
0	692	50.332399613494	1
0	694	50.41823524558	2
0	697	50.439977130919	2
0	700	50.539143797586	0
0	702	51.077326216251	1
0	704	51.176492882918	0
0	706	51.325705284222	1
0	708	51.424871950889	0
0	710	52.031349209919	1
0	712	52.048413049292	2
0	715	52.147579715959	0
0	717	52.963663369985	1
0	719	52.989178443521	2
0	722	53.088345110188	0
0	724	53.45600796269	1
0	726	53.555174629357	0
0	728	54.030590997766	1
0	730	54.129757664433	0
0	732	54.755352895952	1
0	734	54.755643107696	2
0	737	54.854809774363	0
0	739	54.882949499288	1
0	741	54.982116165955	0
0	743	55.009458890727	1
0	745	55.108625557394	0
0	747	55.123815384258	1
0	749	55.222982050925	0
0	751	55.295372813798	1
0	753	55.379994238478	2
0	755	55.387050655733	2
0	759	55.4862173224	0
0	761	55.887785481669	1
0	763	55.935643829008	2
0	766	56.034810495675	0
0	768	56.191910692261	1
0	770	56.197134171278	2
0	773	56.296300837945	0
0	775	56.454513161235	1
0	777	56.553679827902	0
0	779	56.832256314864	1
0	781	56.931422981531	0
0	783	57.151993402665	1
0	785	57.233344215056	2
0	788	57.332510881723	0
0	790	58.203697009776	1
0	792	58.302863676443	0
0	794	58.371748979934	1
0	796	58.470915646601	0
0	798	58.550431372776	1
0	800	58.649598039443	0
0	802	58.779383682225	1
0	804	58.878550348892	0
0	806	59.237007318984	1
0	808	59.301167350276	2
0	811	59.400334016943	0
0	813	59.499465902747	1
0	815	59.598632569414	0
0	817	59.624204896912	1
0	819	59.723371563579	0
0	821	60.07408868173	1
0	823	60.171136467883	2
0	826	60.260148235785	2
0	829	60.359314902452	0
0	831	60.427111463768	1
0	833	60.526278130435	0
0	835	60.824982018228	1
0	837	60.924148684895	0
0	839	61.02271149711	1
0	841	61.121878163777	0
0	843	61.126331848958	1
0	845	61.225498515625	0
0	847	61.373623795762	1
0	849	61.472790462429	0
0	851	61.713693557847	1
0	853	61.755089485768	2
0	856	61.854256152435	0
0	858	62.29833781875	1
0	860	62.34504946937	2
0	863	62.431591378467	2
0	866	62.460207439771	2
0	869	62.559374106438	0
0	871	62.971631403187	1
0	873	63.070798069854	0
0	875	63.29478298736	1
0	877	63.326802663752	2
0	880	63.425969330419	0
0	882	63.709841342816	1
0	884	63.760315772939	2
0	887	63.859482439606	0
0	889	63.862233331325	1
0	891	63.936213696106	2
0	894	64.035380362773	0
0	896	64.125673183547	1
0	898	64.224839850214	0
0	900	64.642589620382	1
0	902	64.741756287049	0
0	904	64.814214750708	1
0	906	64.913381417375	0
0	908	65.009775865365	1
0	910	65.108942532032	0
0	912	65.204788164931	1
0	914	65.303954831598	0
0	916	65.312604396556	1
0	918	65.411771063223	0
0	920	65.52740718719	1
0	922	65.626573853857	0
0	924	66.409009813235	1
0	926	66.505507370728	2
0	929	66.604674037395	0
0	931	66.97460414101	1
0	933	67.073770807677	0
0	935	67.251045613308	1
0	937	67.350212279975	0
0	939	67.680165175131	1
0	941	67.719926951135	2
0	944	67.819093617802	0
0	946	68.083843607539	1
0	948	68.183010274206	0
0	950	68.272873932321	1
0	952	68.372040598988	0
0	954	68.437209060629	1
0	956	68.515745947173	2
0	959	68.605781518478	2
0	962	68.704948185145	0
0	964	68.873873984691	1
0	966	68.973040651358	0
0	968	68.982069312297	1
0	970	69.081235978964	0
0	972	69.356967482453	1
0	974	69.45613414912	0
0	976	69.502035307804	1
0	978	69.601201974471	0
0	980	69.632743650581	1
0	982	69.731910317248	0
0	984	69.997375026459	1
0	986	70.090983933787	2
0	989	70.190150600454	0
0	991	70.420168381706	1
0	993	70.463267189126	2
0	996	70.562433855793	0
0	998	70.6869792409	1
0	1000	70.786145907567	0
0	1002	70.833708408433	1
0	1004	70.9328750751	0
0	1006	71.014112447943	1
0	1008	71.11327911461	0
0	1010	71.181301723802	1
0	1012	71.280468390469	0
0	1014	71.606810264895	1
0	1016	71.705976931562	0
0	1018	71.803561224671	1
0	1020	71.902727891338	0
0	1022	72.095802910695	1
0	1024	72.143841340042	2
0	1027	72.197898986871	2
0	1029	72.210436219507	2
0	1033	72.309602886174	0
0	1035	72.47326398162	1
0	1037	72.572430648287	0
0	1039	72.73482953402	1
0	1041	72.760987260601	2
0	1044	72.860153927268	0
0	1046	72.954487135313	1
0	1048	73.05365380198	0
0	1050	73.24008953423	1
0	1052	73.339256200897	0
0	1054	73.373135205388	1
0	1056	73.472301872055	0
0	1058	73.54471181706	1
0	1060	73.574364284434	2
0	1063	73.673530951101	0
0	1065	73.793174039152	1
0	1067	73.892340705819	0
0	1069	74.113346407391	1
0	1071	74.193316646258	2
0	1074	74.23885967285	2
0	1077	74.325903002293	2
0	1080	74.42506966896	0
0	1082	74.437500102131	1
0	1084	74.519028236437	2
0	1087	74.606854123432	2
0	1090	74.706020790099	0
0	1092	74.989337480761	1
0	1094	75.088504147428	0
0	1096	75.108424538394	1
0	1098	75.207591205061	0
0	1100	75.322807879859	1
0	1102	75.421974546526	0
0	1104	75.493119773037	1
0	1106	75.592286439704	0
0	1108	75.958162385323	1
0	1110	76.05732905199	0
0	1112	76.152210309104	1
0	1114	76.251376975771	0
0	1116	76.371094027738	1
0	1118	76.470260694405	0
0	1120	76.829567601862	1
0	1122	76.928734268529	0
0	1124	76.941450392891	1
0	1126	77.040617059558	0
0	1128	77.155254373317	1
0	1130	77.156140567478	2
0	1133	77.255307234145	0
0	1135	77.387462543453	1
0	1137	77.399152290896	2
0	1140	77.498318957563	0
0	1142	77.650355926864	1
0	1144	77.749522593531	0
0	1146	78.724033123258	1
0	1148	78.803327892955	2
0	1151	78.902494559622	0
0	1153	78.918945135059	1
0	1155	79.018111801726	0
0	1157	79.144327907377	1
0	1159	79.243494574044	0
0	1161	79.687905333299	1
0	1163	79.787071999966	0
0	1165	79.8077102459	1
0	1167	79.906876912567	0
0	1169	80.225695955422	1
0	1171	80.324862622089	0
0	1173	80.440498591164	1
0	1175	80.539665257831	0
0	1177	80.952457914577	1
0	1179	81.051624581244	0
0	1181	81.353271415699	1
0	1183	81.452438082366	0
0	1185	81.581809400213	1
0	1187	81.68097606688	0
0	1189	81.902556731946	1
0	1191	82.001723398613	0
0	1193	82.797158428369	1
0	1195	82.893615842324	2
0	1198	82.992782508991	0
0	1200	85.007607888283	1
0	1202	85.10677455495	0
0	1204	85.244291590806	1
0	1206	85.343458257473	0
0	1208	85.381434518816	1
0	1210	85.480601185483	0
0	1212	85.546846546493	1
0	1214	85.64601321316	0
0	1216	85.931944115664	1
0	1218	86.031110782331	0
0	1220	86.130324464639	1
0	1222	86.200331541539	2
0	1225	86.299498208206	0
0	1227	86.318496873186	1
0	1229	86.417663539853	0
0	1231	86.45242029745	1
0	1233	86.551586964117	0
0	1235	87.771483139997	1
0	1237	87.867013237516	2
0	1240	87.966179904183	0
0	1242	88.059516400381	1
0	1244	88.158683067048	0
0	1246	88.828311579028	1
0	1248	88.927478245695	0
0	1250	89.032642123495	1
0	1252	89.131808790162	0
0	1254	89.308835585268	1
0	1256	89.408002251935	0
0	1258	89.9389569567	1
0	1260	90.000909310145	2
0	1263	90.100075976812	0
0	1265	90.159495568079	1
0	1267	90.258662234746	0
0	1269	90.320113475503	1
0	1271	90.41928014217	0
0	1273	90.585791068111	1
0	1275	90.591828667519	2
0	1278	90.690995334186	0
0	1280	91.066204952534	1
0	1282	91.14006072698	2
0	1285	91.239227393647	0
0	1287	91.543434297998	1
0	1289	91.642600964665	0
0	1291	91.675957548466	1
0	1293	91.775124215133	0
0	1295	91.943724028259	1
0	1297	92.042890694926	0
0	1299	92.07821758244	1
0	1301	92.177384249107	0
0	1303	92.507855198615	1
0	1305	92.607021865282	0
0	1307	92.751337422103	1
0	1309	92.85050408877	0
0	1311	92.969424940121	1
0	1313	92.977023480271	2
0	1316	93.076190146938	0
0	1318	93.117578254088	1
0	1320	93.135998751314	2
0	1323	93.235165417981	0
0	1325	94.223870952539	1
0	1327	94.323037619206	0
0	1329	94.677078519343	1
0	1331	94.678772261017	2
0	1334	94.777938927684	0
0	1336	95.231757807518	1
0	1338	95.306472017434	2
0	1341	95.405638684101	0
0	1343	95.598394527173	1
0	1345	95.69756119384	0
0	1347	95.853662335625	1
0	1349	95.952829002292	0
0	1351	96.069241764381	1
0	1353	96.168408431048	0
0	1355	96.58540763405	1
0	1357	96.684574300717	0
0	1359	97.045217702314	1
0	1361	97.144384368981	0
0	1363	97.292049594213	1
0	1365	97.335616007507	2
0	1368	97.432507908353	2
0	1371	97.53167457502	0
0	1373	97.683519814892	1
0	1375	97.782686481559	0
0	1377	97.822940537089	1
0	1379	97.916341068933	2
0	1382	97.940674723429	2
0	1385	98.039841390096	0
0	1387	98.465562824221	1
0	1389	98.564729490888	0
0	1391	98.588385548817	1
0	1393	98.687552215484	0
0	1395	98.866931730278	1
0	1397	98.899028520912	2
0	1400	98.998195187579	0
0	1402	99.260175362248	1
0	1404	99.358196511705	2
0	1407	99.457363178372	0
0	1409	99.469505286958	1
0	1411	99.482363549207	2
0	1414	99.581530215874	0
0	1416	99.702546151629	1
0	1418	99.801712818296	0
0	1420	99.955035942122	1
0	1422	100.054202608789	0
0	1424	100.074827922952	1
0	1426	100.173994589619	0
0	1428	100.267679260182	1
0	1430	100.356833912001	2
0	1433	100.456000578668	0
0	1435	100.859543844032	1
0	1437	100.958710510699	0
0	1439	101.579652738559	1
0	1441	101.678819405226	0
0	1443	101.686382571189	1
0	1445	101.785549237856	0
0	1447	101.819415203195	1
0	1449	101.918581869862	0
0	1451	102.159955619442	1
0	1453	102.259122286109	0
0	1455	103.297525372238	1
0	1457	103.396692038905	0
0	1459	103.553556525331	1
0	1461	103.652723191998	0
0	1463	103.663026523092	1
0	1465	103.762193189759	0
0	1467	104.517143202864	1
0	1469	104.616309869531	0
0	1471	104.771250462771	1
0	1473	104.870417129438	0
0	1475	105.016933682308	1
0	1477	105.116100348975	0
0	1479	105.198641352735	1
0	1481	105.297808019402	0
0	1483	106.495478526613	1
0	1485	106.506998630108	2
0	1488	106.606165296775	0
0	1490	106.610952481018	1
0	1492	106.710119147685	0
0	1494	106.981420834028	1
0	1496	107.080587500695	0
0	1498	107.144323291861	1
0	1500	107.152542557495	2
0	1503	107.251709224162	0
0	1505	107.512284858592	1
0	1507	107.594772958775	2
0	1510	107.635323630929	2
0	1513	107.727382939777	2
0	1516	107.826549606444	0
0	1518	107.970408916436	1
0	1520	108.069575583103	0
0	1522	108.084103645619	1
0	1524	108.102522264186	2
0	1527	108.192125918976	2
0	1530	108.256374074793	2
0	1533	108.339199500097	2
0	1536	108.437806956368	2
0	1539	108.536973623035	0
0	1541	108.715828346034	1
0	1543	108.814995012701	0
0	1545	108.824596679298	1
0	1547	108.923763345965	0
0	1549	109.297486364223	1
0	1551	109.39665303089	0
0	1553	109.612835214667	1
0	1555	109.712001881334	0
0	1557	110.048645280482	1
0	1559	110.147811947149	0
0	1561	110.547799584632	1
0	1563	110.646966251299	0
0	1565	110.663188601362	1
0	1567	110.732875517085	2
0	1570	110.8064528623	2
0	1573	110.905619528967	0
0	1575	111.143843716729	1
0	1577	111.243010383396	0
0	1579	111.756272968973	1
0	1581	111.85543963564	0
0	1583	111.867012491674	1
0	1585	111.966179158341	0
0	1587	112.14907621563	1
0	1589	112.219092441709	2
0	1592	112.318259108376	0
0	1594	112.391632691505	1
0	1596	112.427357430684	2
0	1599	112.526524097351	0
0	1601	112.96996515409	1
0	1603	112.979693463358	2
0	1606	113.078860130025	0
0	1608	113.207058232526	1
0	1610	113.25704687183	2
0	1613	113.356213538497	0
0	1615	114.235391088208	1
0	1617	114.334557754875	0
0	1619	114.528846341052	1
0	1621	114.628013007719	0
0	1623	114.728542222089	1
0	1625	114.811227624456	2
0	1628	114.910394291123	0
0	1630	115.50133505922	1
0	1632	115.570833589981	2
0	1635	115.670000256648	0
0	1637	116.035868500044	1
0	1639	116.135035166711	0
0	1641	116.424336621809	1
0	1643	116.516078502287	2
0	1646	116.615245168954	0
0	1648	116.74549991015	1
0	1650	116.776729528071	2
0	1653	116.875896194738	0
0	1655	116.92681428915	1
0	1657	117.025980955817	0
0	1659	117.136634498483	1
0	1661	117.23580116515	0
0	1663	117.920150038751	1
0	1665	118.019316705418	0
0	1667	118.695890864073	1
0	1669	118.79505753074	0
0	1671	118.956753440865	1
0	1673	119.055920107532	0
0	1675	119.399705517088	1
0	1677	119.498872183755	0
0	1679	119.595312541522	1
0	1681	119.694479208189	0
0	1683	119.823759652242	1
0	1685	119.922926318909	0
0	1687	120.402704904711	1
0	1689	120.501871571378	0
0	1691	120.779196923244	1
0	1693	120.878363589911	0
0	1695	120.925841099239	1
0	1697	121.025007765906	0
0	1699	121.197473137418	1
0	1701	121.296639804085	0
0	1703	121.402148164181	1
0	1705	121.456115476269	2
0	1708	121.552101681669	2
0	1711	121.651268348336	0
0	1713	122.082704917709	1
0	1715	122.118058148552	2
0	1718	122.217224815219	0
0	1720	125.043433777643	1
0	1722	125.14260044431	0
0	1724	125.149364481784	1
0	1726	125.248531148451	0
0	1728	125.357245643251	1
0	1730	125.456412309918	0
0	1732	125.91916204627	1
0	1734	126.018328712937	0
0	1736	126.688276245873	1
0	1738	126.78744291254	0
0	1740	127.340588931644	1
0	1742	127.439755598311	0
0	1744	127.485198294434	1
0	1746	127.584364961101	0
0	1748	127.782926364524	1
0	1750	127.882093031191	0
0	1752	128.24019707695	1
0	1754	128.339363743617	0
0	1756	128.531751768108	1
0	1758	128.538895200648	2
0	1761	128.638061867315	0
0	1763	128.737516598479	1
0	1765	128.743899048451	2
0	1768	128.843065715118	0
0	1770	128.85639803166	1
0	1772	128.955564698327	0
0	1774	128.974852174128	1
0	1776	129.074018840795	0
0	1778	129.144324668322	1
0	1780	129.243491334989	0
0	1782	130.078553530589	1
0	1784	130.177720197256	0
0	1786	130.747216977437	1
0	1788	130.82008062469	2
0	1791	130.919247291357	0
0	1793	131.017201126036	1
0	1795	131.116367792703	0
0	1797	131.218819548879	1
0	1799	131.317986215546	0
0	1801	131.481936856548	1
0	1803	131.581103523215	0
0	1805	131.73911997615	1
0	1807	131.838286642817	0
0	1809	131.984490166266	1
0	1811	132.083656832933	0
0	1813	132.220636259468	1
0	1815	132.319802926135	0
0	1817	132.657248991666	1
0	1819	132.756415658333	0
0	1821	132.841390959169	1
0	1823	132.904188788021	2
0	1826	133.003355454688	0
0	1828	133.089481101185	1
0	1830	133.188647767852	0
0	1832	133.395818477989	1
0	1834	133.494985144656	0
0	1836	133.718797242667	1
0	1838	133.817963909334	0
0	1840	134.388364102789	1
0	1842	134.487530769456	0
0	1844	135.016643785511	1
0	1846	135.078153822228	2
0	1849	135.177320488895	0
0	1851	135.482781890828	1
0	1853	135.581948557495	0
0	1855	135.812669804285	1
0	1857	135.911836470952	0
0	1859	136.447491275416	1
0	1861	136.541003901423	2
0	1864	136.64017056809	0
0	1866	136.683133517533	1
0	1868	136.7823001842	0
0	1870	137.27727414916	1
0	1872	137.300847877797	2
0	1875	137.400014544464	0
0	1877	137.495511214625	1
0	1879	137.594677881292	0
0	1881	137.743362458587	1
0	1883	137.842529125254	0
0	1885	137.982111995106	1
0	1887	138.081278661773	0
0	1889	138.261001241582	1
0	1891	138.360167908249	0
0	1893	138.402624652246	1
0	1895	138.501791318913	0
0	1897	138.767872815394	1
0	1899	138.867039482061	0
0	1901	138.907290219104	1
0	1903	139.006456885771	0
0	1905	139.041803616597	1
0	1907	139.140970283264	0
0	1909	139.156172324117	1
0	1911	139.214626060583	2
0	1914	139.31379272725	0
0	1916	139.542489602181	1
0	1918	139.641656268848	0
0	1920	139.647500164954	1
0	1922	139.746666831621	0
0	1924	140.259820782915	1
0	1926	140.273321644627	2
0	1929	140.372488311294	0
0	1931	140.733232874185	1
0	1933	140.832399540852	0
0	1935	141.170262694285	1
0	1937	141.269429360952	0
0	1939	141.646852904409	1
0	1941	141.746019571076	0
0	1943	141.884631103941	1
0	1945	141.983797770608	0
0	1947	142.607211026854	1
0	1949	142.706377693521	0
0	1951	143.030160427406	1
0	1953	143.039494141378	2
0	1956	143.138660808045	0
0	1958	143.346480869004	1
0	1960	143.404363355293	2
0	1963	143.50353002196	0
0	1965	144.211679173265	1
0	1967	144.310845839932	0
0	1969	144.314069594956	1
0	1971	144.413236261623	0
0	1973	144.59879925261	1
0	1975	144.697965919277	0
0	1977	144.738336643247	1
0	1979	144.837503309914	0
0	1981	144.907653267857	1
0	1983	144.986811380897	2
0	1986	145.085978047564	0
0	1988	145.191301908782	1
0	1990	145.290468575449	0
0	1992	145.488647487476	1
0	1994	145.573414671829	2
0	1997	145.672581338496	0
0	1999	145.799513254799	1
0	2001	145.898679921466	0
0	2003	145.961236299427	1
0	2005	146.060402966094	0
0	2007	146.645982157121	1
0	2009	146.745148823788	0
0	2011	146.774728683646	1
0	2013	146.873895350313	0
0	2015	146.97083829466	1
0	2017	147.070004961327	0
0	2019	147.131707725102	1
0	2021	147.230874391769	0
0	2023	147.766496217597	1
0	2025	147.865662884264	0
0	2027	148.114822300079	1
0	2029	148.116881211836	2
0	2032	148.216047878503	0
0	2034	148.218585662307	1
0	2036	148.317752328974	0
0	2038	148.393778837626	1
0	2040	148.458055648386	2
0	2043	148.557222315053	0
0	2045	148.879014402021	1
0	2047	148.913329526396	2
0	2050	149.012496193063	0
0	2052	149.279801650329	1
0	2054	149.318819742218	2
0	2057	149.417986408885	0
0	2059	149.665586981482	1
0	2061	149.764753648149	0
0	2063	149.805977561733	1
0	2065	149.9051442284	0
0	2067	150.025725724751	1
0	2069	150.124892391418	0
0	2071	150.144812644149	1
0	2073	150.243979310816	0
0	2075	150.399437923275	1
0	2077	150.498604589942	0
0	2079	151.38388882882	1
0	2081	151.402773127572	2
0	2084	151.501939794239	0
0	2086	151.808656093711	1
0	2088	151.907822760378	0
0	2090	152.078369658239	1
0	2092	152.084522398908	2
0	2095	152.183689065575	0
0	2097	152.238445174178	1
0	2099	152.337611840845	0
0	2101	152.59764915299	1
0	2103	152.696815819657	0
0	2105	153.222901405808	1
0	2107	153.322068072475	0
0	2109	153.550199993389	1
0	2111	153.649366660056	0
0	2113	153.721860532501	1
0	2115	153.821027199168	0
0	2117	154.018452017634	1
0	2119	154.117618684301	0
0	2121	154.23225057605	1
0	2123	154.331417242717	0
0	2125	154.59734040273	1
0	2127	154.669851894306	2
0	2130	154.769018560973	0
0	2132	155.059078654754	1
0	2134	155.158204997996	2
0	2137	155.235353165914	2
0	2140	155.334519832581	0
0	2142	155.36056438522	1
0	2144	155.459731051887	0
0	2146	155.729808452689	1
0	2148	155.828975119356	0
0	2150	156.063063493168	1
0	2152	156.162230159835	0
0	2154	156.370635828991	1
0	2156	156.469802495658	0
0	2158	156.527569391778	1
0	2160	156.576368644068	2
0	2163	156.675535310735	0
0	2165	156.783083814265	1
0	2167	156.882250480932	0
0	2169	157.585357836294	1
0	2171	157.596730783386	2
0	2174	157.695897450053	0
0	2176	157.979788963911	1
0	2178	158.078955630578	0
0	2180	158.100072345057	1
0	2182	158.199239011724	0
0	2184	158.492222997625	1
0	2186	158.591389664292	0
0	2188	159.061436566543	1
0	2190	159.16060323321	0
0	2192	160.134646008437	1
0	2194	160.209494686969	2
0	2197	160.308661353636	0
0	2199	160.41613852347	1
0	2201	160.485105847629	2
0	2204	160.584272514296	0
0	2206	160.739919773257	1
0	2208	160.839086439924	0
0	2210	161.120078774971	1
0	2212	161.219245441638	0
0	2214	161.308009961126	1
0	2216	161.407176627793	0
0	2218	162.003578508179	1
0	2220	162.102745174846	0
0	2222	162.950544419016	1
0	2224	163.049711085683	0
0	2226	163.192457496932	1
0	2228	163.291624163599	0
0	2230	163.351645321135	1
0	2232	163.450811987802	0
0	2234	163.724396873534	1
0	2236	163.823563540201	0
0	2238	163.899297769188	1
0	2240	163.998464435855	0
0	2242	164.00737143275	1
0	2244	164.02733472708	2
0	2246	164.033324250044	2
0	2249	164.10890529636	2
0	2253	164.208071963027	0
0	2255	164.219583080579	1
0	2257	164.318749747246	0
0	2259	164.44594530126	1
0	2261	164.53215157551	2
0	2264	164.601559733847	2
0	2266	164.609551048268	2
0	2270	164.708717714935	0
0	2272	165.383870270165	1
0	2274	165.455824924013	2
0	2277	165.55499159068	0
0	2279	165.915737090577	1
0	2281	166.014903757244	0
0	2283	166.222038081729	1
0	2285	166.321204748396	0
0	2287	166.369523808377	1
0	2289	166.394102398709	2
0	2292	166.493269065376	0
0	2294	166.556995549954	1