version 3
run PureAlohaExperiment-22-20260306-12:10:19-8840
attr configname PureAlohaExperiment
attr datetime 20260306-12:10:19
attr datetimef 20260306-121019
attr experiment PureAlohaExperiment
attr inifile omnetpp.ini
attr iterationvars "$numHosts=15, $iaMean=5"
attr iterationvarsd numHosts=15/iaMean=5
attr iterationvarsf numHosts=15,iaMean=5-
attr measurement "$numHosts=15, $iaMean=5"
attr network Aloha
attr processid 8840
attr repetition 0
attr replication #0
attr resultdir results
attr runnumber 22
attr seedset 22
itervar iaMean 5
itervar numHosts 15
config description "Channel utilization in the function of packet generation frequency"
config repeat 2
config sim-time-limit 90min
config Aloha.numHosts 15
config Aloha.host[*].iaTime exponential(5s)
config network Aloha
config Aloha.numHosts 20
config Aloha.slotTime 0s
config Aloha.txRate 9.6kbps
config Aloha.host[*].pkLenBits 952b
config **.x "uniform(0m, 1000m)"
config **.y "uniform(0m, 1000m)"
config **.animationHoldTimeOnCollision 0s
config **.idleAnimationSpeed 1
config **.transmissionEdgeAnimationSpeed 1e-6
config **.midTransmissionAnimationSpeed 1e-1

vector 0 Aloha.server serverChannelState:vector ETV
attr enum IDLE=0,TRANSMISSION=1,COLLISION=2
attr recordingmode vector
attr source channelState
attr title "Channel state"
vector 1 Aloha.host[0] radioState:vector ETV
attr enum IDLE=0,TRANSMIT=1
attr recordingmode vector
attr source state
attr title "Radio state"
vector 2 Aloha.host[1] radioState:vector ETV
attr enum IDLE=0,TRANSMIT=1
attr recordingmode vector
attr source state
attr title "Radio state"
vector 3 Aloha.host[2] radioState:vector ETV
attr enum IDLE=0,TRANSMIT=1
attr recordingmode vector
attr source state
attr title "Radio state"
vector 4 Aloha.host[3] radioState:vector ETV
attr enum IDLE=0,TRANSMIT=1
attr recordingmode vector
attr source state
attr title "Radio state"
vector 5 Aloha.host[4] radioState:vector ETV
attr enum IDLE=0,TRANSMIT=1
attr recordingmode vector
attr source state
attr title "Radio state"
vector 6 Aloha.host[5] radioState:vector ETV
attr enum IDLE=0,TRANSMIT=1
attr recordingmode vector
attr source state
attr title "Radio state"
vector 7 Aloha.host[6] radioState:vector ETV
attr enum IDLE=0,TRANSMIT=1
attr recordingmode vector
attr source state
attr title "Radio state"
vector 8 Aloha.host[7] radioState:vector ETV
attr enum IDLE=0,TRANSMIT=1
attr recordingmode vector
attr source state
attr title "Radio state"
vector 9 Aloha.host[8] radioState:vector ETV
attr enum IDLE=0,TRANSMIT=1
attr recordingmode vector
attr source state
attr title "Radio state"
vector 10 Aloha.host[9] radioState:vector ETV
attr enum IDLE=0,TRANSMIT=1
attr recordingmode vector
attr source state
attr title "Radio state"
vector 11 Aloha.host[10] radioState:vector ETV
attr enum IDLE=0,TRANSMIT=1
attr recordingmode vector
attr source state
attr title "Radio state"
vector 12 Aloha.host[11] radioState:vector ETV
attr enum IDLE=0,TRANSMIT=1
attr recordingmode vector
attr source state
attr title "Radio state"
vector 13 Aloha.host[12] radioState:vector ETV
attr enum IDLE=0,TRANSMIT=1
attr recordingmode vector
attr source state
attr title "Radio state"
vector 14 Aloha.host[13] radioState:vector ETV
attr enum IDLE=0,TRANSMIT=1
attr recordingmode vector
attr source state
attr title "Radio state"
vector 15 Aloha.host[14] radioState:vector ETV
attr enum IDLE=0,TRANSMIT=1
attr recordingmode vector
attr source state
attr title "Radio state"
vector 16 Aloha.server channelUtilizationVector:vector ETV
attr interpolationmode linear
attr recordingmode vector
attr source timeavg(receive)
attr title "channel utilization evolution"
0	0	0	0
0	2	0.001330656825	1
0	4	0.100497323492	0
0	6	0.287475868756	1
0	8	0.386642535423	0
0	10	0.607093027923	1
0	12	0.70625969459	0
0	14	1.766109246242	1
0	16	1.865275912909	0
0	18	2.089787819343	1
0	20	2.18895448601	0
0	22	2.448450414672	1
0	24	2.547617081339	0
0	26	2.611064082906	1
0	28	2.710230749573	0
0	30	3.17583768521	1
0	32	3.275004351877	0
0	34	3.868331796212	1
0	36	3.967498462879	0
0	38	4.730175899301	1
0	40	4.775235578747	2
0	43	4.874402245414	0
0	45	5.827262686176	1
0	47	5.926429352843	0
0	49	6.052267704375	1
0	51	6.151434371042	0
0	53	6.254108507655	1
0	55	6.353275174322	0
0	57	7.304935039531	1
0	59	7.393011388218	2
0	62	7.492178054885	0
0	64	8.611600421751	1
0	66	8.710767088418	0
0	68	10.634963442593	1
0	70	10.73413010926	0
0	72	10.788139310817	1
0	74	10.88166733875	2
0	77	10.980834005417	0
0	79	11.581727707082	1
0	81	11.680894373749	0
0	83	11.959443146926	1
0	85	12.010152697028	2
0	88	12.109319363695	0
0	90	12.390130610969	1
0	92	12.489297277636	0
0	94	12.676227237487	1
0	96	12.775393904154	0
0	98	12.836401809757	1
0	100	12.935568476424	0
0	102	13.670884508203	1
0	104	13.77005117487	0
0	106	14.572579717696	1
0	108	14.671746384363	0
0	110	14.843231505783	1
0	112	14.94239817245	0
0	114	15.35849058196	1
0	116	15.419925131922	2
0	119	15.519091798589	0
0	121	15.754815973928	1
0	123	15.83049012097	2
0	126	15.929656787637	0
0	128	16.482867669399	1
0	130	16.581262899744	2
0	133	16.680429566411	0
0	135	16.870440929098	1
0	137	16.969607595765	0
0	139	17.203292055998	1
0	141	17.302458722665	0
0	143	17.666650360168	1
0	145	17.765817026835	0
0	147	18.130001038083	1
0	149	18.22916770475	0
0	151	18.446525361047	1
0	153	18.545692027714	0
0	155	18.768654854896	1
0	157	18.867821521563	0
0	159	19.049683444761	1
0	161	19.148850111428	0
0	163	19.32042430305	1
0	165	19.329154111534	2
0	167	19.380169971348	2
0	171	19.479336638015	0
0	173	19.47999504185	1
0	175	19.579161708517	0
0	177	20.644243882598	1
0	179	20.743410549265	0
0	181	20.814254985527	1
0	183	20.913421652194	0
0	185	21.465014056926	1
0	187	21.49516040019	2
0	190	21.58226264078	2
0	193	21.681429307447	0
0	195	21.979606496588	1
0	197	22.078773163255	0
0	199	22.267651298173	1
0	201	22.285261019436	2
0	204	22.384427686103	0
0	206	22.452928397715	1
0	208	22.552095064382	0
0	210	22.914173651807	1
0	212	23.013340318474	0
0	214	23.484909371202	1
0	216	23.584076037869	0
0	218	23.827936624323	1
0	220	23.92710329099	0
0	222	23.972132541668	1
0	224	24.071299208335	0
0	226	25.201515940569	1
0	228	25.282116125402	2
0	231	25.31357433953	2
0	234	25.412741006197	0
0	236	25.490632391023	1
0	238	25.58979905769	0
0	240	25.9324529166	1
0	242	26.031619583267	0
0	244	26.738217777534	1
0	246	26.837384444201	0
0	248	26.921494264226	1
0	250	27.020660930893	0
0	252	27.056463193212	1
0	254	27.155629859879	0
0	256	28.162929046347	1
0	258	28.231124015092	2
0	260	28.254835981004	2
0	264	28.354002647671	0
0	266	28.424298074488	1
0	268	28.523464741155	0
0	270	28.602099843271	1
0	272	28.701266509938	0
0	274	29.037859080879	1
0	276	29.137025747546	0
0	278	29.178635688375	1
0	280	29.277802355042	0
0	282	29.563676652509	1
0	284	29.662843319176	0
0	286	29.688172823591	1
0	288	29.730100457319	2
0	291	29.829267123986	0
0	293	30.08544485437	1
0	295	30.106232610762	2
0	298	30.205399277429	0
0	300	30.238361932705	1
0	302	30.337528599372	0
0	304	30.581434890151	1
0	306	30.620996396823	2
0	309	30.72016306349	0
0	311	31.574308717472	1
0	313	31.673475384139	0
0	315	32.069539372878	1
0	317	32.105616525062	2
0	320	32.203013520722	2
0	323	32.22324581592	2
0	326	32.322412482587	0
0	328	33.239697955567	1
0	330	33.338864622234	0
0	332	34.278447178857	1
0	334	34.31612372576	2
0	337	34.415290392427	0
0	339	34.9654047395	1
0	341	35.064571406167	0
0	343	36.391611170761	1
0	345	36.490777837428	0
0	347	36.507799896728	1
0	349	36.513804065152	2
0	351	36.518416157046	2
0	355	36.617582823713	0
0	357	37.165925323582	1
0	359	37.265091990249	0
0	361	37.39182778641	1
0	363	37.490994453077	0
0	365	37.596874481954	1
0	367	37.696041148621	0
0	369	38.075921438946	1
0	371	38.175088105613	0
0	373	38.826027332658	1
0	375	38.925193999325	0
0	377	38.967109827588	1
0	379	39.041787973261	2
0	382	39.126106148375	2
0	385	39.173611204059	2
0	388	39.272777870726	0
0	390	39.370567143926	1
0	392	39.469733810593	0
0	394	39.521158439289	1
0	396	39.620325105956	0
0	398	39.672413322445	1
0	400	39.771579989112	0
0	402	40.169095027483	1
0	404	40.207864188637	2
0	407	40.307030855304	0
0	409	40.985743115796	1
0	411	41.084909782463	0
0	413	41.089644911525	1
0	415	41.188811578192	0
0	417	41.403656347472	1
0	419	41.502823014139	0
0	421	41.654432281077	1
0	423	41.753598947744	0
0	425	41.943930564397	1
0	427	42.007633903334	2
0	430	42.106800570001	0
0	432	42.274242063362	1
0	434	42.373408730029	0
0	436	43.818505830477	1
0	438	43.917672497144	0
0	440	44.190914541822	1
0	442	44.290081208489	0
0	444	44.488236216041	1
0	446	44.587402882708	0
0	448	44.730174785935	1
0	450	44.829341452602	0
0	452	44.921737539234	1
0	454	44.961668766005	2
0	456	45.004314619288	2
0	460	45.103481285955	0
0	462	45.507749896925	1
0	464	45.547351190455	2
0	467	45.646517857122	0
0	469	45.735538046902	1
0	471	45.834704713569	0
0	473	46.110441561912	1
0	475	46.209608228579	0
0	477	46.283865047144	1
0	479	46.383031713811	0
0	481	46.785315610973	1
0	483	46.853940366363	2
0	486	46.95310703303	0
0	488	47.057578689445	1
0	490	47.156745356112	0
0	492	47.689572272524	1
0	494	47.788738939191	0
0	496	47.807840234566	1
0	498	47.838163934845	2
0	501	47.937330601512	0
0	503	47.943373646139	1
0	505	48.042540312806	0
0	507	48.677100314976	1
0	509	48.734803039643	2
0	512	48.83396970631	0
0	514	49.377626794818	1
0	516	49.476793461485	0
0	518	49.933657837065	1
0	520	50.032824503732	0
0	522	50.034128908855	1
0	524	50.133295575522	0
0	526	51.425009637189	1
0	528	51.524176303856	0
0	530	51.913362066949	1
0	532	52.012528733616	0
0	534	52.568926653751	1
0	536	52.668093320418	0
0	538	52.922400139431	1
0	540	52.926903583704	2
0	542	53.008416270824	2
0	546	53.107582937491	0
0	548	53.291994712487	1
0	550	53.391161379154	0
0	552	53.758570607669	1
0	554	53.857737274336	0
0	556	54.137463660372	1
0	558	54.236630327039	0
0	560	54.333482907182	1
0	562	54.432649573849	0
0	564	54.731149454814	1
0	566	54.830316121481	0
0	568	54.918794840582	1
0	570	55.017961507249	0
0	572	55.740395417717	1
0	574	55.839562084384	0
0	576	55.94052519005	1
0	578	56.039691856717	0
0	580	56.208278038865	1
0	582	56.307444705532	0
0	584	56.438438306431	1
0	586	56.537604973098	0
0	588	57.610397724289	1
0	590	57.709564390956	0
0	592	58.575790318845	1
0	594	58.674956985512	0
0	596	58.782763281659	1
0	598	58.881929948326	0
0	600	59.029255776669	1
0	602	59.128422443336	0
0	604	59.4430500993	1
0	606	59.542216765967	0
0	608	59.726260639605	1
0	610	59.77060079499	2
0	613	59.869767461657	0
0	615	60.05669063554	1
0	617	60.155857302207	0
0	619	60.259335942494	1
0	621	60.358502609161	0
0	623	60.925310030155	1
0	625	60.95492056853	2
0	628	61.054087235197	0
0	630	61.111904991884	1
0	632	61.211071658551	0
0	634	61.252051865362	1
0	636	61.31734261976	2
0	639	61.35683908164	2
0	642	61.456005748307	0
0	644	61.83251395618	1
0	646	61.931680622847	0
0	648	62.100503829019	1
0	650	62.199670495686	0
0	652	62.82849212652	1
0	654	62.927658793187	0
0	656	62.929483008739	1
0	658	63.028649675406	0
0	660	63.622242071074	1
0	662	63.710255839615	2
0	665	63.809422506282	0
0	667	64.134274306793	1
0	669	64.23344097346	0
0	671	64.771276048855	1
0	673	64.796270516991	2
0	676	64.895437183658	0
0	678	65.158605642856	1
0	680	65.257772309523	0
0	682	65.280477021261	1
0	684	65.379643687928	0
0	686	65.448044228256	1
0	688	65.547210894923	0
0	690	66.063728742812	1
0	692	66.162895409479	0
0	694	66.682878260654	1
0	696	66.782044927321	0
0	698	67.508501471294	1
0	700	67.607668137961	0
0	702	67.794348099427	1
0	704	67.893514766094	0
0	706	68.26699247455	1
0	708	68.366159141217	0
0	710	68.781056475721	1
0	712	68.820738336432	2
0	715	68.919905003099	0
0	717	69.110908970529	1
0	719	69.130069959931	2
0	721	69.161018701268	2
0	725	69.260185367935	0
0	727	69.564640871113	1
0	729	69.66380753778	0
0	731	69.939052207491	1
0	733	70.029669771132	2
0	736	70.111457656082	2
0	739	70.210624322749	0
0	741	70.304460107358	1
0	743	70.403626774025	0
0	745	71.103434101821	1
0	747	71.200764238036	2
0	750	71.299930904703	0
0	752	71.376246351859	1
0	754	71.475413018526	0
0	756	71.774438117233	1
0	758	71.8736047839	0
0	760	71.943786864135	1
0	762	72.042953530802	0
0	764	72.843852240172	1
0	766	72.943018906839	0
0	768	72.980201147643	1
0	770	73.07936781431	0
0	772	73.454425729931	1
0	774	73.553592396598	0
0	776	73.804564351746	1
0	778	73.816692153371	2
0	780	73.830430936952	2
0	784	73.929597603619	0
0	786	74.749914680956	1
0	788	74.849081347623	0
0	790	75.351584434818	1
0	792	75.450751101485	0
0	794	75.744320990338	1
0	796	75.843487657005	0
0	798	75.879591255747	1
0	800	75.90894752366	2
0	803	76.008114190327	0
0	805	76.041019993302	1
0	807	76.140186659969	0
0	809	76.34512703997	1
0	811	76.444293706637	0
0	813	76.627607388178	1
0	815	76.726774054845	0
0	817	76.75512086892	1
0	819	76.854287535587	0
0	821	77.073325787109	1
0	823	77.134649218864	2
0	826	77.233815885531	0
0	828	78.546061456937	1
0	830	78.645228123604	0
0	832	79.201677207996	1
0	834	79.300843874663	0
0	836	79.495460421635	1
0	838	79.594627088302	0
0	840	79.860406691462	1
0	842	79.959573358129	0
0	844	80.148560921622	1
0	846	80.247727588289	0
0	848	80.697369061659	1
0	850	80.796535728326	0
0	852	81.410631340228	1
0	854	81.509798006895	0
0	856	81.71109377649	1
0	858	81.810260443157	0
0	860	81.90637889126	1
0	862	82.005545557927	0
0	864	82.119677082055	1
0	866	82.177913889323	2
0	869	82.27708055599	0
0	871	82.295512910279	1
0	873	82.394679576946	0
0	875	82.77052518827	1
0	877	82.869691854937	0
0	879	83.104853895871	1
0	881	83.124194489961	2
0	884	83.223361156628	0
0	886	83.900032848469	1
0	888	83.999199515136	0
0	890	84.032107765511	1
0	892	84.061839616235	2
0	895	84.161006282902	0
0	897	84.312507823026	1
0	899	84.347289898319	2
0	902	84.446456564986	0
0	904	84.529219764407	1
0	906	84.628386431074	0
0	908	84.863988862006	1
0	910	84.963155528673	0
0	912	85.224226080236	1
0	914	85.261172943773	2
0	917	85.36033961044	0
0	919	85.486569885297	1
0	921	85.585736551964	0
0	923	85.712361668348	1
0	925	85.811528335015	0
0	927	86.660447561935	1
0	929	86.759614228602	0
0	931	87.03025744173	1
0	933	87.034915501683	2
0	936	87.13408216835	0
0	938	87.453745135139	1
0	940	87.468751538512	2
0	943	87.567918205179	0
0	945	87.621221056422	1
0	947	87.688313203099	2
0	950	87.787479869766	0
0	952	87.834041818316	1
0	954	87.933208484983	0
0	956	88.031062641777	1
0	958	88.130229308444	0
0	960	88.279773190866	1
0	962	88.378939857533	0
0	964	88.448361421188	1
0	966	88.547528087855	0
0	968	88.558406892233	1
0	970	88.560214375011	2
0	972	88.565662517588	2
0	976	88.664829184255	0
0	978	88.872307205846	1
0	980	88.971473872513	0
0	982	89.075662593571	1
0	984	89.174829260238	0
0	986	89.683279618881	1
0	988	89.706447660612	2
0	991	89.805614327279	0
0	993	90.088024508413	1
0	995	90.18719117508	0
0	997	90.187507337113	1
0	999	90.28667400378	0
0	1001	90.43110301229	1
0	1003	90.530269678957	0
0	1005	90.553488533876	1
0	1007	90.652655200543	0
0	1009	90.700082294248	1
0	1011	90.799248960915	0
0	1013	91.84670199094	1
0	1015	91.945868657607	0
0	1017	92.635579017847	1
0	1019	92.650983738377	2
0	1022	92.750150405044	0
0	1024	92.918350622029	1
0	1026	93.017517288696	0
0	1028	93.055896110262	1
0	1030	93.155062776929	0
0	1032	93.168727315888	1
0	1034	93.18704413818	2
0	1037	93.286210804847	0
0	1039	94.764217904876	1
0	1041	94.858517646067	2
0	1044	94.957684312734	0
0	1046	95.517041621942	1
0	1048	95.616208288609	0
0	1050	95.745108774324	1
0	1052	95.844275440991	0
0	1054	96.579765929072	1
0	1056	96.678932595739	0
0	1058	96.82992091581	1
0	1060	96.929087582477	0
0	1062	97.116166002432	1
0	1064	97.215332669099	0
0	1066	97.605704228551	1
0	1068	97.704870895218	0
0	1070	98.08681952875	1
0	1072	98.185986195417	0
0	1074	99.900226111185	1
0	1076	99.999392777852	0
0	1078	100.274900923802	1
0	1080	100.374067590469	0
0	1082	100.512745988049	1
0	1084	100.611912654716	0
0	1086	101.125254859341	1
0	1088	101.224421526008	0
0	1090	102.226239143585	1
0	1092	102.325405810252	0
0	1094	102.689843268121	1
0	1096	102.789009934788	0
0	1098	103.114264469781	1
0	1100	103.213431136448	0
0	1102	103.313499776247	1
0	1104	103.316692204806	2
0	1106	103.365882276316	2
0	1110	103.435894971841	2
0	1113	103.535061638508	0
0	1115	103.549103420618	1
0	1117	103.648270087285	0
0	1119	104.566806632316	1
0	1121	104.600905180499	2
0	1124	104.700071847166	0
0	1126	104.759581090032	1
0	1128	104.858747756699	0
0	1130	105.112573030699	1
0	1132	105.211739697366	0
0	1134	106.252233076538	1
0	1136	106.351399743205	0
0	1138	106.689836675259	1
0	1140	106.789003341926	0
0	1142	106.840165153901	1
0	1144	106.939331820568	0
0	1146	107.020707202813	1
0	1148	107.066138861237	2
0	1151	107.165305527904	0
0	1153	107.445241589995	1
0	1155	107.454063875623	2
0	1157	107.479183773343	2
0	1161	107.57835044001	0
0	1163	107.865196847363	1
0	1165	107.877195572255	2
0	1168	107.976362238922	0
0	1170	107.996452762954	1
0	1172	108.062194027539	2
0	1175	108.161360694206	0
0	1177	108.52766022654	1
0	1179	108.626826893207	0
0	1181	109.861922230423	1
0	1183	109.96108889709	0
0	1185	110.086650384179	1
0	1187	110.185817050846	0
0	1189	110.550575335467	1
0	1191	110.649742002134	0
0	1193	111.332043670402	1
0	1195	111.431210337069	0
0	1197	111.644932367643	1
0	1199	111.74409903431	0
0	1201	111.996631113389	1
0	1203	112.095797780056	0
0	1205	112.773092151245	1
0	1207	112.872258817912	0
0	1209	113.56284333572	1
0	1211	113.592042068229	2
0	1214	113.691208734896	0
0	1216	114.470908814064	1
0	1218	114.570075480731	0
0	1220	114.717968716995	1
0	1222	114.817135383662	0
0	1224	115.176406254518	1
0	1226	115.275572921185	0
0	1228	115.469426032435	1
0	1230	115.568592699102	0
0	1232	116.9532128839	1
0	1234	117.052379550567	0
0	1236	117.116446565664	1
0	1238	117.215613232331	0
0	1240	117.434213364124	1
0	1242	117.533380030791	0
0	1244	117.558822077729	1
0	1246	117.657988744396	0
0	1248	117.878895319067	1
0	1250	117.976161608787	2
0	1253	118.075328275454	0
0	1255	118.36306406762	1
0	1257	118.462230734287	0
0	1259	119.243598392662	1
0	1261	119.342765059329	0
0	1263	119.466642941624	1
0	1265	119.565809608291	0
0	1267	119.586918974114	1
0	1269	119.686085640781	0
0	1271	119.770748543308	1
0	1273	119.869915209975	0
0	1275	119.989477525922	1
0	1277	120.088644192589	0
0	1279	120.964031979523	1
0	1281	121.06319864619	0
0	1283	122.312523684526	1
0	1285	122.411690351193	0
0	1287	122.660082120406	1
0	1289	122.759248787073	0
0	1291	123.42410236848	1
0	1293	123.523269035147	0
0	1295	124.033728833548	1
0	1297	124.132895500215	0
0	1299	124.162983368663	1
0	1301	124.184399972863	2
0	1304	124.28356663953	0
0	1306	124.433376725109	1
0	1308	124.532543391776	0
0	1310	124.542727767069	1
0	1312	124.566662711331	2
0	1315	124.665829377998	0
0	1317	125.770948489491	1
0	1319	125.870115156158	0
0	1321	126.109332405837	1
0	1323	126.208499072504	0
0	1325	126.236231705894	1
0	1327	126.335398372561	0
0	1329	126.823126977888	1
0	1331	126.922293644555	0
0	1333	127.248552868624	1
0	1335	127.347719535291	0
0	1337	128.172705616336	1
0	1339	128.200462600692	2
0	1342	128.299629267359	0
0	1344	128.333931962959	1
0	1346	128.433098629626	0
0	1348	128.802193240292	1
0	1350	128.836827439241	2
0	1353	128.935994105908	0
0	1355	128.971911324224	1
0	1357	129.071077990891	0
0	1359	129.180854893064	1
0	1361	129.245855446431	2
0	1364	129.345022113098	0
0	1366	130.014302013871	1
0	1368	130.113468680538	0
0	1370	130.546364438507	1
0	1372	130.645531105174	0
0	1374	131.244976335197	1
0	1376	131.344143001864	0
0	1378	131.379999250967	1
0	1380	131.479165917634	0
0	1382	132.224496421676	1
0	1384	132.277504561465	2
0	1387	132.362519944637	2
0	1390	132.397169460976	2
0	1393	132.496336127643	0
0	1395	133.015550667297	1
0	1397	133.114717333964	0
0	1399	133.36254380807	1
0	1401	133.461710474737	0
0	1403	133.617934444362	1
0	1405	133.717101111029	0
0	1407	133.994429194617	1
0	1409	134.093595861284	0
0	1411	134.270352178433	1
0	1413	134.3695188451	0
0	1415	134.520179573134	1
0	1417	134.540788694759	2
0	1419	134.548866335918	2
0	1423	134.648033002585	0
0	1425	135.233801896047	1
0	1427	135.332968562714	0
0	1429	135.904769396409	1
0	1431	136.003936063076	0
0	1433	136.540690661303	1
0	1435	136.63985732797	0
0	1437	136.663635154349	1
0	1439	136.762801821016	0
0	1441	136.850818875626	1
0	1443	136.856762435037	2
0	1446	136.955929101704	0
0	1448	136.978098435153	1
0	1450	137.07726510182	0
0	1452	137.249166751319	1
0	1454	137.348333417986	0
0	1456	137.351859461397	1
0	1458	137.451026128064	0
0	1460	137.695752206058	1
0	1462	137.758456585709	2
0	1465	137.857623252376	0
0	1467	138.340466824099	1
0	1469	138.439633490766	0
0	1471	138.539108858029	1
0	1473	138.638275524696	0
0	1475	139.023381128409	1
0	1477	139.122547795076	0
0	1479	140.718908769325	1
0	1481	140.818075435992	0
0	1483	140.911363348784	1
0	1485	141.010530015451	0
0	1487	141.598097518096	1
0	1489	141.697264184763	0
0	1491	141.72963497817	1
0	1493	141.828801644837	0
0	1495	141.939421131626	1
0	1497	142.038587798293	0
0	1499	142.877620793294	1
0	1501	142.933479921258	2
0	1504	143.032646587925	0
0	1506	143.066085953635	1
0	1508	143.116163481717	2
0	1510	143.150434096759	2
0	1514	143.249600763426	0
0	1516	143.441644804189	1
0	1518	143.540811470856	0
0	1520	144.122170821006	1
0	1522	144.221337487673	0
0	1524	145.282356887979	1
0	1526	145.381523554646	0
0	1528	145.453891520644	1
0	1530	145.553058187311	0
0	1532	146.722807177993	1
0	1534	146.82197384466	0
0	1536	146.917130405226	1
0	1538	147.016297071893	0
0	1540	147.08403363903	1
0	1542	147.129288941971	2
0	1545	147.228455608638	0
0	1547	147.49087311198	1
0	1549	147.590039778647	0
0	1551	147.975740618919	1
0	1553	148.074907285586	0
0	1555	148.719014841349	1
0	1557	148.818181508016	0
0	1559	148.846474101748	1
0	1561	148.891740294959	2
0	1564	148.990906961626	0
0	1566	149.331459915909	1
0	1568	149.365150785909	2
0	1571	149.464317452576	0
0	1573	149.598590268298	1
0	1575	149.6246544339	2
0	1578	149.723821100567	0
0	1580	150.473750227763	1
0	1582	150.57291689443	0
0	1584	151.393466049266	1
0	1586	151.492632715933	0
0	1588	151.783948004039	1
0	1590	151.883114670706	0
0	1592	151.961646407589	1
0	1594	152.060813074256	0
0	1596	152.169937588606	1
0	1598	152.269104255273	0
0	1600	152.414535067751	1
0	1602	152.513701734418	0
0	1604	153.243056360197	1
0	1606	153.342223026864	0
0	1608	153.658734512089	1
0	1610	153.757901178756	0
0	1612	153.836560829385	1
0	1614	153.935727496052	0
0	1616	154.053650937915	1
0	1618	154.152817604582	0
0	1620	154.324820365072	1
0	1622	154.423987031739	0
0	1624	154.499182194922	1
0	1626	154.598348861589	0
0	1628	154.647712072938	1
0	1630	154.746878739605	0
0	1632	155.16449010682	1
0	1634	155.263656773487	0
0	1636	156.240389161452	1
0	1638	156.339555828119	0
0	1640	156.66323512942	1
0	1642	156.762401796087	0
0	1644	156.859922104602	1
0	1646	156.959088771269	0
0	1648	158.084693847496	1
0	1650	158.183860514163	0
0	1652	158.19947927969	1
0	1654	158.213150748436	2
0	1657	158.312317415103	0
0	1659	159.51482561468	1
0	1661	159.613992281347	0
0	1663	159.668953025329	1
0	1665	159.768119691996	0
0	1667	160.222165636077	1
0	1669	160.236731832159	2
0	1671	160.313111010496	2
0	1675	160.412277677163	0
0	1677	160.832526885893	1
0	1679	160.93169355256	0
0	1681	161.022963843055	1
0	1683	161.122130509722	0
0	1685	161.390946155935	1
0	1687	161.477191425989	2
0	1690	161.513397999666	2
0	1693	161.612564666333	0
0	1695	162.697540466842	1
0	1697	162.71754676714	2
0	1700	162.816713433807	0
0	1702	163.348103581134	1
0	1704	163.447270247801	0
0	1706	163.713251135802	1
0	1708	163.812417802469	0
0	1710	164.337898325963	1
0	1712	164.43706499263	0
0	1714	164.509522091975	1
0	1716	164.608688758642	0
0	1718	164.959599631105	1
0	1720	165.058766297772	0
0	1722	165.909360612021	1
0	1724	166.008527278688	0
0	1726	166.428386456156	1
0	1728	166.433772208631	2
0	1731	166.532938875298	0
0	1733	166.655393967809	1
0	1735	166.754560634476	0
0	1737	167.16648491754	1
0	1739	167.265651584207	0
0	1741	168.143703780903	1
0	1743	168.24287044757	0
0	1745	168.74853260754	1
0	1747	168.847699274207	0
0	1749	169.023492812686	1
0	1751	169.122659479353	0
0	1753	169.407923060281	1
0	1755	169.505580857454	2
0	1758	169.604747524121	0
0	1760	169.973641196811	1
0	1762	169.981505470249	2
0	1764	170.014737909738	2
0	1766	170.045484932394	2
0	1771	170.144651599061	0
0	1773	170.22916577078	1
0	1775	170.328332437447	0
0	1777	170.489115188642	1
0	1779	170.588281855309	0
0	1781	171.352802548605	1
0	1783	171.451969215272	0
0	1785	171.501484740654	1
0	1787	171.600651407321	0
0	1789	171.695264955196	1
0	1791	171.794431621863	0
0	1793	172.295294231077	1
0	1795	172.394460897744	0
0	1797	172.56976171694	1
0	1799	172.668928383607	0
0	1801	172.690062202298	1
0	1803	172.789228868965	0
0	1805	172.804808756912	1
0	1807	172.903975423579	0
0	1809	173.870986252393	1
0	1811	173.97015291906	0
0	1813	174.028319207945	1
0	1815	174.127485874612	0
0	1817	174.419823497493	1
0	1819	174.51899016416	0
0	1821	174.530486983714	1
0	1823	174.629653650381	0
0	1825	174.673540581585	1
0	1827	174.772707248252	0
0	1829	175.168673385282	1
0	1831	175.267840051949	0
0	1833	175.343827512124	1
0	1835	175.442994178791	0
0	1837	175.492843060772	1
0	1839	175.592009727439	0
0	1841	175.699379309169	1
0	1843	175.798545975836	0
0	1845	175.856140040473	1
0	1847	175.95530670714	0
0	1849	176.372691221642	1
0	1851	176.400328910551	2
0	1854	176.499495577218	0
0	1856	177.066510140844	1
0	1858	177.165676807511	0
0	1860	177.290053374344	1
0	1862	177.389220041011	0
0	1864	177.458285790119	1
0	1866	177.557452456786	0
0	1868	177.692333410978	1
0	1870	177.747793479262	2
0	1873	177.846960145929	0
0	1875	178.159779313126	1
0	1877	178.258945979793	0
0	1879	178.493358580752	1
0	1881	178.592525247419	0
0	1883	179.113773316304	1
0	1885	179.212939982971	0
0	1887	179.379859564009	1
0	1889	179.479026230676	0
0	1891	179.504306614532	1
0	1893	179.603473281199	0
0	1895	179.874091297007	1
0	1897	179.973257963674	0
0	1899	180.197804958711	1
0	1901	180.296971625378	0
0	1903	180.410432592618	1
0	1905	180.416017108436	2
0	1908	180.515183775103	0
0	1910	181.034843224634	1
0	1912	181.103696801333	2
0	1915	181.202863468	0
0	1917	181.512514289159	1
0	1919	181.611680955826	0
0	1921	181.682122127157	1
0	1923	181.781288793824	0
0	1925	182.047845759863	1
0	1927	182.061697730773	2
0	1930	182.16086439744	0
0	1932	182.219599928454	1
0	1934	182.318766595121	0
0	1936	182.365317617885	1
0	1938	182.464484284552	0
0	1940	182.960367009969	1
0	1942	183.059533676636	0
0	1944	183.060097265947	1
0	1946	183.107367366617	2
0	1948	183.158544417517	2
0	1952	183.257711084184	0
0	1954	183.702774053854	1
0	1956	183.801940720521	0
0	1958	183.927723504863	1
0	1960	184.000909147097	2
0	1963	184.100075813764	0
0	1965	184.301248436847	1
0	1967	184.389962220663	2
0	1970	184.48912888733	0
0	1972	185.227024749367	1
0	1974	185.326191416034	0
0	1976	185.382824424021	1
0	1978	185.481991090688	0
0	1980	185.74857398847	1
0	1982	185.847740655137	0
0	1984	186.737292268074	1
0	1986	186.836458934741	0
0	1988	187.383161513081	1
0	1990	187.482328179748	0
0	1992	188.24418928102	1
0	1994	188.309301324082	2
0	1997	188.408467990749	0
0	1999	188.662661877175	1
0	2001	188.761828543842	0
0	2003	189.112945613915	1
0	2005	189.212112280582	0
0	2007	189.400590304949	1
0	2009	189.499756971616	0
0	2011	189.759711484958	1
0	2013	189.858878151625	0
0	2015	190.96625630494	1
0	2017	191.02688807797	2
0	2020	191.126054744637	0
0	2022	191.714771524368	1
0	2024	191.813938191035	0
0	2026	191.828748338903	1
0	2028	191.92791500557	0
0	2030	192.130553332123	1
0	2032	192.22971999879	0
0	2034	192.260646841549	1
0	2036	192.359813508216	0
0	2038	193.275436200623	1
0	2040	193.37460286729	0
0	2042	193.629670734577	1
0	2044	193.728837401244	0
0	2046	194.996842103278	1
0	2048	195.096008769945	0
0	2050	195.273622977821	1
0	2052	195.372789644488	0
0	2054	195.438368472064	1
0	2056	195.537535138731	0
0	2058	195.783688991109	1
0	2060	195.882855657776	0
0	2062	196.010589784083	1
0	2064	196.10975645075	0
0	2066	196.550822172938	1
0	2068	196.588758392554	2
0	2071	196.687925059221	0
0	2073	196.898577487467	1
0	2075	196.926348600237	2
0	2078	197.025515266904	0
0	2080	197.272299329392	1
0	2082	197.371465996059	0
0	2084	197.458595502379	1
0	2086	197.495848407525	2
0	2088	197.509790980158	2
0	2092	197.608957646825	0
0	2094	197.633614380573	1
0	2096	197.664248512056	2
0	2099	197.763415178723	0
0	2101	198.711799543796	1
0	2103	198.810966210463	0
0	2105	199.798340060023	1
0	2107	199.89750672669	0
0	2109	200.100392989689	1
0	2111	200.199559656356	0
0	2113	201.581919563754	1
0	2115	201.681086230421	0
0	2117	201.942225037083	1
0	2119	202.04139170375	0
0	2121	202.061486109037	1
0	2123	202.160652775704	0
0	2125	202.195390662968	1
0	2127	202.294557329635	0
0	2129	203.131429207209	1
0	2131	203.230595873876	0
0	2133	203.255228415063	1
0	2135	203.35439508173	0
0	2137	203.505416673689	1
0	2139	203.56596413384	2
0	2142	203.665130800507	0
0	2144	203.727160097401	1
0	2146	203.826326764068	0
0	2148	203.883822271002	1
0	2150	203.886627003407	2
0	2153	203.985793670074	0
0	2155	204.367698652926	1
0	2157	204.466865319593	0
0	2159	204.57574902424	1
0	2161	204.674915690907	0
0	2163	204.787856521834	1
0	2165	204.887023188501	0
0	2167	205.370895589044	1
0	2169	205.447989248146	2
0	2172	205.547155914813	0
0	2174	205.766603893042	1
0	2176	205.865770559709	0
0	2178	206.316265745681	1
0	2180	206.415432412348	0
0	2182	206.525613828285	1
0	2184	206.564211665101	2
0	2187	206.663378331768	0
0	2189	207.350591001481	1
0	2191	207.449757668148	0
0	2193	207.542020596969	1
0	2195	207.616701795033	2
0	2198	207.7158684617	0
0	2200	207.725242011716	1
0	2202	207.824408678383	0
0	2204	208.740630511989	1
0	2206	208.839797178656	0
0	2208	208.909073983092	1
0	2210	209.008240649759	0
0	2212	209.021475439828	1
0	2214	209.044262018424	2
0	2217	209.143428685091	0
0	2219	209.379752003643	1
0	2221	209.47891867031	0
0	2223	209.555935211331	1
0	2225	209.574739392765	2
0	2228	209.673906059432	0
0	2230	209.904417971079	1
0	2232	210.003584637746	0
0	2234	210.63035213282	1
0	2236	210.729518799487	0
0	2238	211.190538757504	1
0	2240	211.289705424171	0
0	2242	211.590067145591	1
0	2244	211.689233812258	0
0	2246	212.153382974855	1
0	2248	212.252549641522	0
0	2250	212.904040610124	1