version 3
run PureAlohaExperiment-37-20260306-12:10:23-8840
attr configname PureAlohaExperiment
attr datetime 20260306-12:10:23
attr datetimef 20260306-121023
attr experiment PureAlohaExperiment
attr inifile omnetpp.ini
attr iterationvars "$numHosts=20, $iaMean=5"
attr iterationvarsd numHosts=20/iaMean=5
attr iterationvarsf numHosts=20,iaMean=5-
attr measurement "$numHosts=20, $iaMean=5"
attr network Aloha
attr processid 8840
attr repetition 1
attr replication #1
attr resultdir results
attr runnumber 37
attr seedset 37
itervar iaMean 5
itervar numHosts 20
config description "Channel utilization in the function of packet generation frequency"
config repeat 2
config sim-time-limit 90min
config Aloha.numHosts 20
config Aloha.host[*].iaTime exponential(5s)
config network Aloha
config Aloha.numHosts 20
config Aloha.slotTime 0s
config Aloha.txRate 9.6kbps
config Aloha.host[*].pkLenBits 952b
config **.x "uniform(0m, 1000m)"
config **.y "uniform(0m, 1000m)"
config **.animationHoldTimeOnCollision 0s
config **.idleAnimationSpeed 1
config **.transmissionEdgeAnimationSpeed 1e-6
config **.midTransmissionAnimationSpeed 1e-1

vector 0 Aloha.server serverChannelState:vector ETV
attr enum IDLE=0,TRANSMISSION=1,COLLISION=2
attr recordingmode vector
attr source channelState
attr title "Channel state"
vector 1 Aloha.host[0] radioState:vector ETV
attr enum IDLE=0,TRANSMIT=1
attr recordingmode vector
attr source state
attr title "Radio state"
vector 2 Aloha.host[1] radioState:vector ETV
attr enum IDLE=0,TRANSMIT=1
attr recordingmode vector
attr source state
attr title "Radio state"
vector 3 Aloha.host[2] radioState:vector ETV
attr enum IDLE=0,TRANSMIT=1
attr recordingmode vector
attr source state
attr title "Radio state"
vector 4 Aloha.host[3] radioState:vector ETV
attr enum IDLE=0,TRANSMIT=1
attr recordingmode vector
attr source state
attr title "Radio state"
vector 5 Aloha.host[4] radioState:vector ETV
attr enum IDLE=0,TRANSMIT=1
attr recordingmode vector
attr source state
attr title "Radio state"
vector 6 Aloha.host[5] radioState:vector ETV
attr enum IDLE=0,TRANSMIT=1
attr recordingmode vector
attr source state
attr title "Radio state"
vector 7 Aloha.host[6] radioState:vector ETV
attr enum IDLE=0,TRANSMIT=1
attr recordingmode vector
attr source state
attr title "Radio state"
vector 8 Aloha.host[7] radioState:vector ETV
attr enum IDLE=0,TRANSMIT=1
attr recordingmode vector
attr source state
attr title "Radio state"
vector 9 Aloha.host[8] radioState:vector ETV
attr enum IDLE=0,TRANSMIT=1
attr recordingmode vector
attr source state
attr title "Radio state"
vector 10 Aloha.host[9] radioState:vector ETV
attr enum IDLE=0,TRANSMIT=1
attr recordingmode vector
attr source state
attr title "Radio state"
vector 11 Aloha.host[10] radioState:vector ETV
attr enum IDLE=0,TRANSMIT=1
attr recordingmode vector
attr source state
attr title "Radio state"
vector 12 Aloha.host[11] radioState:vector ETV
attr enum IDLE=0,TRANSMIT=1
attr recordingmode vector
attr source state
attr title "Radio state"
vector 13 Aloha.host[12] radioState:vector ETV
attr enum IDLE=0,TRANSMIT=1
attr recordingmode vector
attr source state
attr title "Radio state"
vector 14 Aloha.host[13] radioState:vector ETV
attr enum IDLE=0,TRANSMIT=1
attr recordingmode vector
attr source state
attr title "Radio state"
vector 15 Aloha.host[14] radioState:vector ETV
attr enum IDLE=0,TRANSMIT=1
attr recordingmode vector
attr source state
attr title "Radio state"
vector 16 Aloha.host[15] radioState:vector ETV
attr enum IDLE=0,TRANSMIT=1
attr recordingmode vector
attr source state
attr title "Radio state"
vector 17 Aloha.host[16] radioState:vector ETV
attr enum IDLE=0,TRANSMIT=1
attr recordingmode vector
attr source state
attr title "Radio state"
vector 18 Aloha.host[17] radioState:vector ETV
attr enum IDLE=0,TRANSMIT=1
attr recordingmode vector
attr source state
attr title "Radio state"
vector 19 Aloha.host[18] radioState:vector ETV
attr enum IDLE=0,TRANSMIT=1
attr recordingmode vector
attr source state
attr title "Radio state"
vector 20 Aloha.host[19] radioState:vector ETV
attr enum IDLE=0,TRANSMIT=1
attr recordingmode vector
attr source state
attr title "Radio state"
vector 21 Aloha.server channelUtilizationVector:vector ETV
attr interpolationmode linear
attr recordingmode vector
attr source timeavg(receive)
attr title "channel utilization evolution"
0	0	0	0
0	2	0.622313179598	1
0	4	0.721479846265	0
0	6	0.724044229347	1
0	8	0.823210896014	0
0	10	0.985782532127	1
0	12	1.084949198794	0
0	14	1.129392734179	1
0	16	1.228559400846	0
0	18	1.830080998621	1
0	20	1.929247665288	0
0	22	2.02467247818	1
0	24	2.123839144847	0
0	26	2.265060340346	1
0	28	2.268485502685	2
0	31	2.367652169352	0
0	33	2.568827987962	1
0	35	2.667994654629	0
0	37	3.154807244611	1
0	39	3.253973911278	0
0	41	3.254463424172	1
0	43	3.353630090839	0
0	45	3.361006417821	1
0	47	3.460173084488	0
0	49	3.88121581073	1
0	51	3.980382477397	0
0	53	4.076994948304	1
0	55	4.176161614971	0
0	57	4.390069066844	1
0	59	4.489235733511	0
0	61	4.611725142268	1
0	63	4.639863720126	2
0	65	4.65604681313	2
0	68	4.732492880559	2
0	72	4.831659547226	0
0	74	4.849711543535	1
0	76	4.948878210202	0
0	78	5.178655767762	1
0	80	5.208548505747	2
0	83	5.307715172414	0
0	85	5.374689576655	1
0	87	5.389641540071	2
0	90	5.488808206738	0
0	92	5.520998519917	1
0	94	5.620165186584	0
0	96	5.847268481171	1
0	98	5.893129745306	2
0	101	5.972481724898	2
0	104	6.071648391565	0
0	106	6.455782462465	1
0	108	6.483679984458	2
0	111	6.582846651125	0
0	113	7.210638004558	1
0	115	7.309804671225	0
0	117	7.334097702929	1
0	119	7.433264369596	0
0	121	7.527633465125	1
0	123	7.626800131792	0
0	125	8.133197827932	1
0	127	8.232364494599	0
0	129	8.407447090368	1
0	131	8.465657001768	2
0	134	8.564823668435	0
0	136	9.453051177257	1
0	138	9.552217843924	0
0	140	9.749672615995	1
0	142	9.803293027422	2
0	145	9.902459694089	0
0	147	10.75420703731	1
0	149	10.853373703977	0
0	151	10.891565256111	1
0	153	10.956058026128	2
0	156	11.055224692795	0
0	158	11.302224240644	1
0	160	11.372223528272	2
0	163	11.471390194939	0
0	165	11.641286305052	1
0	167	11.740452971719	0
0	169	12.286939114391	1
0	171	12.386105781058	0
0	173	12.68971036962	1
0	175	12.788877036287	0
0	177	13.147549433276	1
0	179	13.192738534806	2
0	182	13.291905201473	0
0	184	13.705579156073	1
0	186	13.714171493304	2
0	189	13.813338159971	0
0	191	14.282936733189	1
0	193	14.33221375967	2
0	196	14.431380426337	0
0	198	14.591915017773	1
0	200	14.69108168444	0
0	202	15.059128025796	1
0	204	15.158294692463	0
0	206	15.298036407719	1
0	208	15.397203074386	0
0	210	15.59496579941	1
0	212	15.694132466077	0
0	214	15.717051089498	1
0	216	15.816217756165	0
0	218	16.180347283484	1
0	220	16.279513950151	0
0	222	17.014732832024	1
0	224	17.113899498691	0
0	226	17.170777280639	1
0	228	17.269943947306	0
0	230	17.446747712231	1
0	232	17.545914378898	0
0	234	17.573408451934	1
0	236	17.637442373886	2
0	239	17.736609040553	0
0	241	17.963274005361	1
0	243	18.062440672028	0
0	245	18.283270173072	1
0	247	18.382436839739	0
0	249	18.49065342545	1
0	251	18.589820092117	0
0	253	18.620859903481	1
0	255	18.720026570148	0
0	257	18.803415752553	1
0	259	18.856369063988	2
0	262	18.918411423289	2
0	265	19.017578089956	0
0	267	19.20701092327	1
0	269	19.306177589937	0
0	271	19.798886380043	1
0	273	19.89805304671	0
0	275	20.089995476314	1
0	277	20.189162142981	0
0	279	20.3258918757	1
0	281	20.425058542367	0
0	283	20.567708715839	1
0	285	20.627264564365	2
0	287	20.637420054717	2
0	291	20.736586721384	0
0	293	21.042996996046	1
0	295	21.142163662713	0
0	297	21.515260870817	1
0	299	21.614427537484	0
0	301	21.729209422259	1
0	303	21.828376088926	0
0	305	21.887087118022	1
0	307	21.986253784689	0
0	309	22.638870285225	1
0	311	22.738036951892	0
0	313	22.922320134214	1
0	315	22.931907205771	2
0	317	23.016425662316	2
0	321	23.059321819863	2
0	324	23.15848848653	0
0	326	23.188582525397	1
0	328	23.287749192064	0
0	330	23.817484773019	1
0	332	23.916651439686	0
0	334	24.09449783674	1
0	336	24.179632743448	2
0	339	24.274678729188	2
0	342	24.373845395855	0
0	344	24.770643982846	1
0	346	24.78904189748	2
0	349	24.888208564147	0
0	351	25.240036358002	1
0	353	25.276989119935	2
0	356	25.343115320758	2
0	359	25.442281987425	0
0	361	25.677829688043	1
0	363	25.77699635471	0
0	365	25.888032782716	1
0	367	25.987199449383	0
0	369	25.991294156848	1
0	371	26.090460823515	0
0	373	26.257278321369	1
0	375	26.356444988036	0
0	377	26.539960275395	1
0	379	26.639126942062	0
0	381	27.014746458105	1
0	383	27.113913124772	0
0	385	27.262310432494	1
0	387	27.361477099161	0
0	389	27.487448416354	1
0	391	27.5456740678	2
0	394	27.644840734467	0
0	396	28.003551992999	1
0	398	28.102718659666	0
0	400	28.177038183042	1
0	402	28.276204849709	0
0	404	28.325922268506	1
0	406	28.425088935173	0
0	408	28.626139654893	1
0	410	28.72530632156	0
0	412	28.773478166909	1
0	414	28.872644833576	0
0	416	29.068756784377	1
0	418	29.167923451044	0
0	420	29.201089677169	1
0	422	29.300256343836	0
0	424	29.527951300328	1
0	426	29.627117966995	0
0	428	29.677056139594	1
0	430	29.776222806261	0
0	432	29.793121931311	1
0	434	29.84727999628	2
0	437	29.946446662947	0
0	439	30.334539594026	1
0	441	30.419875993123	2
0	444	30.463196388367	2
0	447	30.562363055034	0
0	449	30.80363158165	1
0	451	30.902798248317	0
0	453	30.951970737623	1
0	455	31.05113740429	0
0	457	31.152381817973	1
0	459	31.1890509003	2
0	462	31.276473386135	2
0	465	31.353134234809	2
0	468	31.452300901476	0
0	470	31.599048664816	1
0	472	31.661333638784	2
0	474	31.678593509261	2
0	478	31.777760175928	0
0	480	31.901065225548	1
0	482	31.909963443587	2
0	484	31.976097460744	2
0	488	32.075264127411	0
0	490	32.329404773624	1
0	492	32.428571440291	0
0	494	32.735714777287	1
0	496	32.834881443954	0
0	498	33.498368545511	1
0	500	33.587679728515	2
0	503	33.686846395182	0
0	505	33.777679449024	1
0	507	33.876846115691	0
0	509	33.951575434047	1
0	511	34.050742100714	0
0	513	34.09833481954	1
0	515	34.197501486207	0
0	517	34.802045362062	1
0	519	34.901212028729	0
0	521	35.207608815465	1
0	523	35.306775482132	0
0	525	35.341349933986	1
0	527	35.440516600653	0
0	529	35.982401112708	1
0	531	36.018792350124	2
0	534	36.088420351689	2
0	537	36.187587018356	0
0	539	36.210700825824	1
0	541	36.273876661929	2
0	544	36.373043328596	0
0	546	36.418058756119	1
0	548	36.430948530648	2
0	551	36.530115197315	0
0	553	36.739376521146	1
0	555	36.803836520305	2
0	558	36.903003186972	0
0	560	37.243609021879	1
0	562	37.342775688546	0
0	564	37.486714005143	1
0	566	37.58588067181	0
0	568	37.771783727027	1
0	570	37.870950393694	0
0	572	38.041212604989	1
0	574	38.140379271656	0
0	576	38.538347686557	1
0	578	38.575164326083	2
0	581	38.662478108386	2
0	584	38.704457377886	2
0	587	38.803624044553	0
0	589	39.75297109365	1
0	591	39.774390538194	2
0	594	39.858771777399	2
0	597	39.957938444066	0
0	599	40.022932338075	1
0	601	40.122099004742	0
0	603	40.41863178902	1
0	605	40.517798455687	0
0	607	40.601527345018	1
0	609	40.700694011685	0
0	611	41.094711892294	1
0	613	41.193878558961	0
0	615	41.377308603329	1
0	617	41.476475269996	0
0	619	41.794816384064	1
0	621	41.893983050731	0
0	623	41.953912942294	1
0	625	42.053079608961	0
0	627	42.073674380182	1
0	629	42.172841046849	0
0	631	42.31148541335	1
0	633	42.315575410519	2
0	636	42.414742077186	0
0	638	43.073469705645	1
0	640	43.172636372312	0
0	642	43.440856502906	1
0	644	43.540023169573	0
0	646	43.581123839898	1
0	648	43.651609521105	2
0	650	43.662837561149	2
0	654	43.762004227816	0
0	656	43.887649592229	1
0	658	43.986816258896	0
0	660	44.039951923323	1
0	662	44.13911858999	0
0	664	44.246823616013	1
0	666	44.287898033218	2
0	669	44.387064699885	0
0	671	44.454754480177	1
0	673	44.553921146844	0
0	675	44.857322376382	1
0	677	44.901076254918	2
0	680	45.000242921585	0
0	682	45.017100531185	1
0	684	45.116267197852	0
0	686	45.275658679744	1
0	688	45.2767255297	2
0	690	45.330088562605	2
0	694	45.429255229272	0
0	696	45.601994242979	1
0	698	45.701160909646	0
0	700	46.051217727655	1
0	702	46.113077674831	2
0	704	46.123593512606	2
0	708	46.222760179273	0
0	710	46.435703966665	1
0	712	46.470455383457	2
0	715	46.569622050124	0
0	717	46.76460604613	1
0	719	46.817016351707	2
0	722	46.916183018374	0
0	724	47.240825173058	1
0	726	47.339991839725	0
0	728	47.702751556654	1
0	730	47.801918223321	0
0	732	47.897167260972	1
0	734	47.996333927639	0
0	736	48.401441168898	1
0	738	48.500607835565	0
0	740	48.695409678353	1
0	742	48.79457634502	0
0	744	48.854357829041	1
0	746	48.953524495708	0
0	748	49.367405234102	1
0	750	49.427646742508	2
0	753	49.526813409175	0
0	755	49.804902376754	1
0	757	49.904069043421	0
0	759	50.000238214672	1
0	761	50.099404881339	0
0	763	50.297255327011	1
0	765	50.396421993678	0
0	767	50.41946568334	1
0	769	50.430936320583	2
0	772	50.53010298725	0
0	774	50.567912174227	1
0	776	50.622072971821	2
0	779	50.721239638488	0
0	781	50.755723272035	1
0	783	50.854889938702	0
0	785	51.249023653923	1
0	787	51.34819032059	0
0	789	51.650940425703	1
0	791	51.656822485239	2
0	794	51.755989151906	0
0	796	52.013999603034	1
0	798	52.113166269701	0
0	800	52.153216116437	1
0	802	52.252382783104	0
0	804	52.368398273324	1
0	806	52.374845462893	2
0	808	52.453376042047	2
0	812	52.552542708714	0
0	814	52.654461485308	1
0	816	52.703692051133	2
0	819	52.8028587178	0
0	821	53.01875130718	1
0	823	53.117917973847	0
0	825	53.578130408349	1
0	827	53.677297075016	0
0	829	53.780943404471	1
0	831	53.880110071138	0
0	833	54.207127838285	1
0	835	54.306294504952	0
0	837	54.50121833676	1
0	839	54.600385003427	0
0	841	54.789478099496	1
0	843	54.888644766163	0
0	845	55.19120777721	1
0	847	55.290374443877	0
0	849	56.261496313983	1
0	851	56.36066298065	0
0	853	56.517571380545	1
0	855	56.616738047212	0
0	857	57.228370959278	1
0	859	57.327537625945	0
0	861	57.623679463872	1
0	863	57.722846130539	0
0	865	57.900517707021	1
0	867	57.910818815304	2
0	869	57.997774346337	2
0	872	58.008857778672	2
0	876	58.108024445339	0
0	878	58.361090777418	1
0	880	58.460257444085	0
0	882	58.673177908299	1
0	884	58.700203748228	2
0	887	58.799370414895	0
0	889	58.824882834847	1
0	891	58.924049501514	0
0	893	59.222973104541	1
0	895	59.322139771208	0
0	897	59.558616101277	1
0	899	59.594227600023	2
0	902	59.69339426669	0
0	904	60.256622602506	1
0	906	60.355789269173	0
0	908	60.679829637313	1
0	910	60.77899630398	0
0	912	61.072678476429	1
0	914	61.110984026811	2
0	917	61.210150693478	0
0	919	61.212326702903	1
0	921	61.31149336957	0
0	923	61.482158038172	1
0	925	61.581324704839	0
0	927	61.604020503012	1
0	929	61.703187169679	0
0	931	61.794989888247	1
0	933	61.894156554914	0
0	935	61.941526206531	1
0	937	62.040692873198	0
0	939	63.164021884491	1
0	941	63.263188551158	0
0	943	63.310557779516	1
0	945	63.409724446183	0
0	947	63.444337704479	1
0	949	63.522086609493	2
0	952	63.62125327616	0
0	954	63.832756108585	1
0	956	63.846808019048	2
0	958	63.91220472527	2
0	962	64.011371391937	0
0	964	64.298106336253	1
0	966	64.351353578161	2
0	969	64.436652115393	2
0	972	64.53581878206	0
0	974	65.140267725315	1
0	976	65.191879366339	2
0	979	65.24109492713	2
0	982	65.340261593797	0
0	984	65.381212624088	1
0	986	65.480379290755	0
0	988	65.658917530495	1
0	990	65.758084197162	0
0	992	65.815436219013	1
0	994	65.82423175767	2
0	996	65.900264951585	2
0	1000	65.999431618252	0
0	1002	66.110111034281	1
0	1004	66.203631562519	2
0	1007	66.269522231985	2
0	1010	66.368688898652	0
0	1012	66.541880981953	1
0	1014	66.64104764862	0
0	1016	66.882472704933	1
0	1018	66.965755036423	2
0	1021	66.994785727762	2
0	1024	67.093952394429	0
0	1026	67.72045286639	1
0	1028	67.756637300251	2
0	1031	67.855803966918	0
0	1033	68.882732340389	1
0	1035	68.909336290586	2
0	1038	69.008502957253	0
0	1040	69.17440782994	1
0	1042	69.273574496607	0
0	1044	69.320678089293	1
0	1046	69.41984475596	0
0	1048	69.421829418644	1
0	1050	69.520996085311	0
0	1052	69.580610811243	1
0	1054	69.67977747791	0
0	1056	69.768799390043	1
0	1058	69.86236625453	2
0	1061	69.961532921197	0
0	1063	71.207797901867	1
0	1065	71.216803955176	2
0	1067	71.276520437236	2
0	1071	71.375687103903	0
0	1073	71.453422190936	1
0	1075	71.552588857603	0
0	1077	71.613378607307	1
0	1079	71.712545273974	0
0	1081	72.067271036367	1
0	1083	72.166437703034	0
0	1085	72.293495040478	1
0	1087	72.3289642812	2
0	1090	72.408640592109	2
0	1093	72.431678953377	2
0	1095	72.474916237481	2
0	1099	72.574082904148	0
0	1101	72.643956137837	1
0	1103	72.743122804504	0
0	1105	72.879498091063	1
0	1107	72.97866475773	0
0	1109	73.109657945399	1
0	1111	73.208824612066	0
0	1113	73.295654182405	1
0	1115	73.394820849072	0
0	1117	73.402601431095	1
0	1119	73.501768097762	0
0	1121	73.501822161905	1
0	1123	73.600988828572	0
0	1125	73.697987699746	1
0	1127	73.797154366413	0
0	1129	73.960999148271	1
0	1131	73.981539964573	2
0	1134	74.08070663124	0
0	1136	74.13617265047	1
0	1138	74.235339317137	0
0	1140	74.582249869181	1
0	1142	74.681416535848	0
0	1144	74.858177042992	1
0	1146	74.925588224876	2
0	1149	75.024754891543	0
0	1151	75.186860943147	1
0	1153	75.286027609814	0
0	1155	75.698714614744	1
0	1157	75.797881281411	0
0	1159	75.819025023072	1
0	1161	75.905205733989	2
0	1164	75.928391151971	2
0	1166	75.946022656199	2
0	1170	76.045189322866	0
0	1172	76.238060031126	1
0	1174	76.337226697793	0
0	1176	76.487456207945	1
0	1178	76.586622874612	0
0	1180	77.160021931053	1
0	1182	77.25918859772	0
0	1184	77.550468901137	1
0	1186	77.621500682715	2
0	1189	77.712108066358	2
0	1192	77.811274733025	0
0	1194	77.853226792434	1
0	1196	77.887020584184	2
0	1199	77.980906422651	2
0	1202	78.072903728101	2
0	1205	78.172070394768	0
0	1207	78.406337574414	1
0	1209	78.505504241081	0
0	1211	78.630586933296	1
0	1213	78.729753599963	0
0	1215	78.899371416185	1
0	1217	78.90558361353	2
0	1220	79.004750280197	0
0	1222	79.22658080713	1
0	1224	79.2647277491	2
0	1227	79.358157877103	2
0	1230	79.45732454377	0
0	1232	79.466098764515	1
0	1234	79.565265431182	0
0	1236	80.130417661066	1
0	1238	80.229584327733	0
0	1240	80.335308086529	1
0	1242	80.350298910752	2
0	1245	80.449465577419	0
0	1247	80.496723359217	1
0	1249	80.595890025884	0
0	1251	80.645550756333	1
0	1253	80.744717423	0
0	1255	80.977030363086	1
0	1257	81.010036771622	2
0	1259	81.042233170407	2
0	1261	81.052565743964	2
0	1266	81.151732410631	0
0	1268	81.303924966062	1
0	1270	81.327277638777	2
0	1272	81.340254815848	2
0	1276	81.439421482515	0
0	1278	81.615834371116	1
0	1280	81.715001037783	0
0	1282	82.27038385524	1
0	1284	82.369550521907	0
0	1286	82.803241060175	1
0	1288	82.902407726842	0
0	1290	83.55560034349	1
0	1292	83.654767010157	0
0	1294	83.875960087269	1
0	1296	83.975126753936	0
0	1298	84.692262607254	1
0	1300	84.704803763841	2
0	1303	84.803970430508	0
0	1305	84.973491039936	1
0	1307	85.072657706603	0
0	1309	85.527459937346	1
0	1311	85.626626604013	0
0	1313	86.644709844858	1
0	1315	86.743876511525	0
0	1317	86.985259368921	1
0	1319	87.0700363217	2
0	1322	87.169202988367	0
0	1324	87.890236306856	1
0	1326	87.941058225008	2
0	1329	88.040224891675	0
0	1331	88.177748492909	1
0	1333	88.193880973865	2
0	1336	88.293047640532	0
0	1338	88.477066702656	1
0	1340	88.576233369323	0
0	1342	88.599378302748	1
0	1344	88.698544969415	0
0	1346	88.873354593528	1
0	1348	88.972521260195	0
0	1350	89.077873085577	1
0	1352	89.177039752244	0
0	1354	89.275058089485	1
0	1356	89.374224756152	0
0	1358	89.419785068517	1
0	1360	89.495807986896	2
0	1363	89.594974653563	0
0	1365	90.189596113874	1
0	1367	90.288762780541	0
0	1369	90.744225239375	1
0	1371	90.843391906042	0
0	1373	90.965115456923	1
0	1375	91.06428212359	0
0	1377	91.407396879453	1
0	1379	91.453966735226	2
0	1381	91.491382751344	2
0	1384	91.519320787124	2
0	1388	91.618487453791	0
0	1390	91.949871057728	1
0	1392	92.049037724395	0
0	1394	92.236427544888	1
0	1396	92.267696485379	2
0	1399	92.366863152046	0
0	1401	92.743732059398	1
0	1403	92.842898726065	0
0	1405	92.871227919853	1
0	1407	92.897072886263	2
0	1410	92.99623955293	0
0	1412	93.134673307961	1
0	1414	93.233839974628	0
0	1416	93.375454798959	1
0	1418	93.474621465626	0
0	1420	93.724533601162	1
0	1422	93.768126446593	2
0	1425	93.86729311326	0
0	1427	93.900233367543	1
0	1429	93.99940003421	0
0	1431	94.048708217925	1
0	1433	94.143032287739	2
0	1436	94.242198954406	0
0	1438	94.410151837943	1
0	1440	94.50931850461	0
0	1442	94.733854906357	1
0	1444	94.833021573024	0
0	1446	94.878825311157	1
0	1448	94.967980564404	2
0	1451	95.067147231071	0
0	1453	95.083571351216	1
0	1455	95.134321462596	2
0	1457	95.149604785381	2
0	1461	95.248771452048	0
0	1463	95.366128436364	1
0	1465	95.465295103031	0
0	1467	95.609746692729	1
0	1469	95.708913359396	0
0	1471	95.827173456309	1
0	1473	95.926340122976	0
0	1475	96.49074917411	1
0	1477	96.565522686269	2
0	1480	96.664689352936	0
0	1482	96.670017840888	1
0	1484	96.769184507555	0
0	1486	96.866075547388	1
0	1488	96.965242214055	0
0	1490	97.164062299496	1
0	1492	97.242230827141	2
0	1495	97.341397493808	0
0	1497	98.136506149482	1
0	1499	98.206173878323	2
0	1502	98.30534054499	0
0	1504	98.409395726927	1
0	1506	98.508562393594	0
0	1508	98.706457801676	1
0	1510	98.805624468343	0
0	1512	99.023639773651	1
0	1514	99.122806440318	0
0	1516	99.198226968428	1
0	1518	99.297393635095	0
0	1520	99.61398298915	1
0	1522	99.713149655817	0
0	1524	99.737148155857	1
0	1526	99.836314822524	0
0	1528	100.187433071133	1
0	1530	100.2865997378	0
0	1532	100.401787027501	1
0	1534	100.500953694168	0
0	1536	100.866406448258	1
0	1538	100.911079987791	2
0	1540	100.949325852179	2
0	1542	100.963861064601	2
0	1547	101.063027731268	0
0	1549	101.07971211521	1
0	1551	101.178878781877	0
0	1553	101.196454826051	1
0	1555	101.295621492718	0
0	1557	101.328884879621	1
0	1559	101.368895424061	2
0	1561	101.414392334557	2
0	1565	101.513559001224	0
0	1567	101.858799720151	1
0	1569	101.895035928844	2
0	1572	101.994202595511	0
0	1574	102.359858442184	1
0	1576	102.459025108851	0
0	1578	102.655044407011	1
0	1580	102.745302393773	2
0	1583	102.754999337389	2
0	1586	102.854166004056	0
0	1588	103.24131820418	1
0	1590	103.335842049023	2
0	1593	103.43500871569	0
0	1595	103.449547603758	1
0	1597	103.492971992927	2
0	1600	103.592138659594	0
0	1602	104.123001603357	1
0	1604	104.222168270024	0
0	1606	104.451390382242	1
0	1608	104.550557048909	0
0	1610	104.715460499512	1
0	1612	104.723463444764	2
0	1614	104.732819261312	2
0	1618	104.831985927979	0
0	1620	105.291257794849	1
0	1622	105.312604631061	2
0	1625	105.411771297728	0
0	1627	105.651087183444	1
0	1629	105.750253850111	0
0	1631	105.776373663392	1
0	1633	105.875540330059	0
0	1635	106.264201694718	1
0	1637	106.324861067282	2
0	1640	106.424027733949	0
0	1642	106.494181506905	1
0	1644	106.593348173572	0
0	1646	106.663772325641	1
0	1648	106.762938992308	0
0	1650	106.914359318256	1
0	1652	106.930362026127	2
0	1655	107.029528692794	0
0	1657	107.789571592692	1
0	1659	107.838508402835	2
0	1662	107.937675069502	0
0	1664	108.453934116674	1
0	1666	108.553100783341	0
0	1668	108.621481354579	1
0	1670	108.720648021246	0
0	1672	109.132597666476	1
0	1674	109.231764333143	0
0	1676	109.618854158905	1
0	1678	109.718020825572	0
0	1680	109.818985136876	1
0	1682	109.918151803543	0
0	1684	110.119991184426	1
0	1686	110.219157851093	0
0	1688	110.298077292738	1
0	1690	110.397243959405	0
0	1692	110.458886183574	1
0	1694	110.558052850241	0
0	1696	110.766150156863	1
0	1698	110.797743811612	2
0	1701	110.896910478279	0
0	1703	110.929009427984	1
0	1705	111.028176094651	0
0	1707	111.069865191315	1
0	1709	111.169031857982	0
0	1711	111.251502745417	1
0	1713	111.350669412084	0
0	1715	111.573064252389	1
0	1717	111.672230919056	0
0	1719	111.74462019946	1
0	1721	111.843786866127	0
0	1723	111.990425828835	1
0	1725	112.037734641886	2
0	1728	112.136901308553	0
0	1730	112.285765727752	1
0	1732	112.384159372905	2
0	1735	112.483326039572	0
0	1737	112.53527406165	1
0	1739	112.634440728317	0
0	1741	112.94067691973	1
0	1743	112.985968420676	2
0	1746	113.085135087343	0
0	1748	113.219178889698	1
0	1750	113.228682745468	2
0	1753	113.327849412135	0
0	1755	113.356386219088	1
0	1757	113.455552885755	0
0	1759	113.806709041571	1
0	1761	113.905875708238	0
0	1763	114.116015429094	1
0	1765	114.122310612587	2
0	1768	114.221477279254	0
0	1770	114.369870129255	1
0	1772	114.469036795922	0
0	1774	114.882098816272	1
0	1776	114.918000721832	2
0	1778	114.956184526449	2
0	1782	115.055351193116	0
0	1784	115.301395403564	1
0	1786	115.335780480608	2
0	1789	115.434947147275	0
0	1791	116.761456267308	1
0	1793	116.810826610971	2
0	1796	116.909993277638	0
0	1798	117.124439566292	1
0	1800	117.223606232959	0
0	1802	117.287603422482	1
0	1804	117.386770089149	0
0	1806	117.601054049021	1
0	1808	117.700220715688	0
0	1810	117.77042672679	1
0	1812	117.821214690871	2
0	1815	117.917106051562	2
0	1818	118.016272718229	0
0	1820	118.112968359917	1
0	1822	118.212135026584	0
0	1824	118.761916174182	1
0	1826	118.808971147619	2
0	1828	118.825378577109	2
0	1831	118.901674498507	2
0	1835	119.000841165174	0
0	1837	119.320374197637	1
0	1839	119.38078899269	2
0	1842	119.479955659357	0
0	1844	119.520733961899	1
0	1846	119.619900628566	0
0	1848	120.17961300693	1
0	1850	120.278779673597	0
0	1852	120.359383371319	1
0	1854	120.416528872507	2
0	1857	120.461313740567	2
0	1860	120.560480407234	0
0	1862	120.582578956684	1
0	1864	120.681745623351	0
0	1866	120.808042874812	1
0	1868	120.907209541479	0
0	1870	121.042334449125	1
0	1872	121.141501115792	0
0	1874	121.955561051715	1
0	1876	122.054727718382	0
0	1878	122.198964146752	1
0	1880	122.298130813419	0
0	1882	122.480533837977	1
0	1884	122.533582241824	2
0	1887	122.632748908491	0
0	1889	122.814519594108	1
0	1891	122.901304893894	2
0	1894	122.993095204128	2
0	1897	123.074398939	2
0	1900	123.163512525203	2
0	1903	123.26267919187	0
0	1905	123.293761927362	1
0	1907	123.327164889327	2
0	1910	123.426331555994	0
0	1912	123.565068556366	1
0	1914	123.618458843328	2
0	1917	123.717625509995	0
0	1919	123.784365659623	1
0	1921	123.88353232629	0
0	1923	124.006337565921	1
0	1925	124.105504232588	0
0	1927	124.506572840641	1
0	1929	124.543470253377	2
0	1932	124.642636920044	0
0	1934	124.805037825684	1
0	1936	124.869021433006	2
0	1939	124.968188099673	0
0	1941	125.040426826878	1
0	1943	125.139593493545	0
0	1945	125.866060929314	1
0	1947	125.965227595981	0
0	1949	126.022826196802	1
0	1951	126.119199996583	2
0	1954	126.21836666325	0
0	1956	126.419829727125	1
0	1958	126.518996393792	0
0	1960	127.13669751616	1
0	1962	127.235864182827	0
0	1964	127.287909018405	1
0	1966	127.387075685072	0
0	1968	127.528348837867	1
0	1970	127.627515504534	0
0	1972	127.794518673116	1
0	1974	127.893685339783	0
0	1976	128.23847706029	1
0	1978	128.337643726957	0
0	1980	128.445814544289	1
0	1982	128.486345280885	2
0	1985	128.551321009198	2
0	1988	128.650487675865	0
0	1990	128.783487525461	1
0	1992	128.882654192128	0
0	1994	129.035855205631	1
0	1996	129.135021872298	0
0	1998	129.336914585234	1
0	2000	129.436081251901	0
0	2002	130.096881854221	1
0	2004	130.179561197219	2
0	2007	130.278727863886	0
0	2009	130.299195653389	1
0	2011	130.398362320056	0
0	2013	130.476833085959	1
0	2015	130.575999752626	0
0	2017	130.719808616012	1
0	2019	130.818975282679	0
0	2021	131.158993309999	1
0	2023	131.258159976666	0
0	2025	131.479643007633	1
0	2027	131.483652013651	2
0	2030	131.582818680318	0
0	2032	131.742566415856	1
0	2034	131.841733082523	0
0	2036	133.095555249103	1
0	2038	133.102538334026	2
0	2041	133.201705000693	0
0	2043	133.875323536159	1
0	2045	133.974490202826	0
0	2047	134.024338108966	1
0	2049	134.105337663587	2
0	2052	134.204504330254	0
0	2054	134.268434820204	1
0	2056	134.367601486871	0
0	2058	135.140150694114	1
0	2060	135.239317360781	0
0	2062	135.649498569439	1
0	2064	135.675244918325	2
0	2067	135.774411584992	0
0	2069	136.180885844671	1
0	2071	136.280052511338	0
0	2073	136.420735874196	1
0	2075	136.519902540863	0
0	2077	136.751491671612	1
0	2079	136.850658338279	0
0	2081	136.883853378372	1
0	2083	136.983020045039	0
0	2085	137.191244091286	1
0	2087	137.290410757953	0
0	2089	137.534589954224	1
0	2091	137.630912656903	2
0	2094	137.73007932357	0
0	2096	137.82976679681	1
0	2098	137.899409255855	2
0	2101	137.998575922522	0
0	2103	138.273824249979	1
0	2105	138.372990916646	0
0	2107	138.746885060773	1
0	2109	138.84605172744	0
0	2111	139.007134627236	1
0	2113	139.039789229365	2
0	2116	139.138955896032	0
0	2118	139.423440037182	1
0	2120	139.522606703849	0
0	2122	139.552736014509	1
0	2124	139.651902681176	0
0	2126	140.01740706293	1
0	2128	140.116573729597	0
0	2130	140.275353058395	1
0	2132	140.374519725062	0
0	2134	140.488052567525	1
0	2136	140.587219234192	0
0	2138	140.764422883147	1
0	2140	140.863589549814	0
0	2142	141.322513078325	1
0	2144	141.421679744992	0
0	2146	141.783353060937	1
0	2148	141.882519727604	0
0	2150	142.297001272605	1
0	2152	142.347462689588	2
0	2155	142.439488296628	2
0	2158	142.538654963295	0
0	2160	142.838600432254	1
0	2162	142.937767098921	0
0	2164	143.231412135798	1
0	2166	143.330578802465	0
0	2168	144.210647740836	1
0	2170	144.288356565872	2
0	2172	144.295008010627	2
0	2176	144.394174677294	0
0	2178	144.513607734669	1
0	2180	144.560015327673	2
0	2182	144.562213835488	2
0	2186	144.661380502155	0
0	2188	145.280102599668	1
0	2190	145.379269266335	0
0	2192	145.386244188135	1
0	2194	145.439947091723	2
0	2197	145.53911375839	0
0	2199	145.836342607438	1
0	2201	145.935509274105	0
0	2203	146.036872061627	1
0	2205	146.045605414471	2
0	2208	146.144772081138	0
0	2210	146.331354088657	1
0	2212	146.430520755324	0
0	2214	146.475189694938	1
0	2216	146.482889334107	2
0	2219	146.582056000774	0
0	2221	146.850708296321	1
0	2223	146.949874962988	0
0	2225	146.950851482455	1
0	2227	147.050018149122	0
0	2229	147.208162621058	1
0	2231	147.307329287725	0
0	2233	147.541462760859	1
0	2235	147.55613212464	2
0	2237	147.585209137962	2
0	2240	147.647402473043	2
0	2244	147.74656913971	0
0	2246	147.806038186687	1
0	2248	147.905204853354	0
0	2250	147.929619865952	1
0	2252	148.028786532619	0
0	2254	148.848164144265	1
0	2256	148.947330810932	0
0	2258	148.99579194843	1
0	2260	149.094958615097	0
0	2262	149.646390681741	1
0	2264	149.734847179141	2
0	2267	149.834013845808	0
0	2269	149.919397755582	1
0	2271	150.018564422249	0
0	2273	150.253120365039	1
0	2275	150.352287031706	0
0	2277	150.352451125967	1
0	2279	150.451617792634	0