version 3
run PureAlohaExperiment-5-20260306-12:10:16-8840
attr configname PureAlohaExperiment
attr datetime 20260306-12:10:16
attr datetimef 20260306-121016
attr experiment PureAlohaExperiment
attr inifile omnetpp.ini
attr iterationvars "$numHosts=10, $iaMean=3"
attr iterationvarsd numHosts=10/iaMean=3
attr iterationvarsf numHosts=10,iaMean=3-
attr measurement "$numHosts=10, $iaMean=3"
attr network Aloha
attr processid 8840
attr repetition 1
attr replication #1
attr resultdir results
attr runnumber 5
attr seedset 5
itervar iaMean 3
itervar numHosts 10
config description "Channel utilization in the function of packet generation frequency"
config repeat 2
config sim-time-limit 90min
config Aloha.numHosts 10
config Aloha.host[*].iaTime exponential(3s)
config network Aloha
config Aloha.numHosts 20
config Aloha.slotTime 0s
config Aloha.txRate 9.6kbps
config Aloha.host[*].pkLenBits 952b
config **.x "uniform(0m, 1000m)"
config **.y "uniform(0m, 1000m)"
config **.animationHoldTimeOnCollision 0s
config **.idleAnimationSpeed 1
config **.transmissionEdgeAnimationSpeed 1e-6
config **.midTransmissionAnimationSpeed 1e-1

vector 0 Aloha.server serverChannelState:vector ETV
attr enum IDLE=0,TRANSMISSION=1,COLLISION=2
attr recordingmode vector
attr source channelState
attr title "Channel state"
vector 1 Aloha.host[0] radioState:vector ETV
attr enum IDLE=0,TRANSMIT=1
attr recordingmode vector
attr source state
attr title "Radio state"
vector 2 Aloha.host[1] radioState:vector ETV
attr enum IDLE=0,TRANSMIT=1
attr recordingmode vector
attr source state
attr title "Radio state"
vector 3 Aloha.host[2] radioState:vector ETV
attr enum IDLE=0,TRANSMIT=1
attr recordingmode vector
attr source state
attr title "Radio state"
vector 4 Aloha.host[3] radioState:vector ETV
attr enum IDLE=0,TRANSMIT=1
attr recordingmode vector
attr source state
attr title "Radio state"
vector 5 Aloha.host[4] radioState:vector ETV
attr enum IDLE=0,TRANSMIT=1
attr recordingmode vector
attr source state
attr title "Radio state"
vector 6 Aloha.host[5] radioState:vector ETV
attr enum IDLE=0,TRANSMIT=1
attr recordingmode vector
attr source state
attr title "Radio state"
vector 7 Aloha.host[6] radioState:vector ETV
attr enum IDLE=0,TRANSMIT=1
attr recordingmode vector
attr source state
attr title "Radio state"
vector 8 Aloha.host[7] radioState:vector ETV
attr enum IDLE=0,TRANSMIT=1
attr recordingmode vector
attr source state
attr title "Radio state"
vector 9 Aloha.host[8] radioState:vector ETV
attr enum IDLE=0,TRANSMIT=1
attr recordingmode vector
attr source state
attr title "Radio state"
vector 10 Aloha.host[9] radioState:vector ETV
attr enum IDLE=0,TRANSMIT=1
attr recordingmode vector
attr source state
attr title "Radio state"
vector 11 Aloha.server channelUtilizationVector:vector ETV
attr interpolationmode linear
attr recordingmode vector
attr source timeavg(receive)
attr title "channel utilization evolution"
0	0	0	0
0	2	0.352642409424	1
0	4	0.451809076091	0
0	6	0.517031756624	1
0	8	0.616198423291	0
0	10	0.685053601779	1
0	12	0.784220268446	0
0	14	0.833356153843	1
0	16	0.93252282051	0
0	18	0.960975622343	1
0	20	0.996616120083	2
0	23	1.09578278675	0
0	25	1.746481257218	1
0	27	1.837491680594	2
0	30	1.936658347261	0
0	32	2.056318985034	1
0	34	2.155485651701	0
0	36	3.320749252045	1
0	38	3.419915918712	0
0	40	3.969283076347	1
0	42	4.023281473089	2
0	44	4.033087391029	2
0	48	4.132254057696	0
0	50	4.166512423145	1
0	52	4.265679089812	0
0	54	4.336512705532	1
0	56	4.435679372199	0
0	58	4.446991340763	1
0	60	4.54615800743	0
0	62	4.559718594091	1
0	64	4.658885260758	0
0	66	4.903826880492	1
0	68	4.995449300251	2
0	71	5.094615966918	0
0	73	5.135622424992	1
0	75	5.137354585372	2
0	78	5.236521252039	0
0	80	5.313112836402	1
0	82	5.412279503069	0
0	84	5.561646530712	1
0	86	5.660813197379	0
0	88	5.779694597103	1
0	90	5.849430017635	2
0	93	5.948596684302	0
0	95	6.359218614253	1
0	97	6.45838528092	0
0	99	6.743126748191	1
0	101	6.842293414858	0
0	103	7.241343003909	1
0	105	7.340509670576	0
0	107	7.368778233925	1
0	109	7.467944900592	0
0	111	7.468590577427	1
0	113	7.541765421915	2
0	116	7.640932088582	0
0	118	8.327494864181	1
0	120	8.350933525555	2
0	123	8.450100192222	0
0	125	9.514583912274	1
0	127	9.613750578941	0
0	129	9.801829273034	1
0	131	9.900995939701	0
0	133	10.381142732819	1
0	135	10.480309399486	0
0	137	11.891405810378	1
0	139	11.92310022757	2
0	142	12.022266894237	0
0	144	12.060172912606	1
0	146	12.06045513069	2
0	149	12.159621797357	0
0	151	13.35262298778	1
0	153	13.451789654447	0
0	155	13.456720214353	1
0	157	13.536989484489	2
0	160	13.636156151156	0
0	162	14.436767101199	1
0	164	14.507020644224	2
0	167	14.606187310891	0
0	169	14.745193717976	1
0	171	14.844360384643	0
0	173	14.923500882193	1
0	175	15.02266754886	0
0	177	15.175458214465	1
0	179	15.274624881132	0
0	181	15.29187958966	1
0	183	15.391046256327	0
0	185	15.622276669054	1
0	187	15.627738573421	2
0	190	15.726905240088	0
0	192	15.809900079852	1
0	194	15.909066746519	0
0	196	16.290705362039	1
0	198	16.389872028706	0
0	200	17.078460962523	1
0	202	17.17762762919	0
0	204	17.669434617792	1
0	206	17.768601284459	0
0	208	17.846178677051	1
0	210	17.945345343718	0
0	212	19.208437874336	1
0	214	19.307604541003	0
0	216	19.314254551691	1
0	218	19.413421218358	0
0	220	19.546341792369	1
0	222	19.617127515619	2
0	225	19.716294182286	0
0	227	20.592908038991	1
0	229	20.692074705658	0
0	231	21.524097103171	1
0	233	21.547248674144	2
0	236	21.646415340811	0
0	238	21.823308288068	1
0	240	21.922474954735	0
0	242	21.983341256762	1
0	244	22.082507923429	0
0	246	22.316806533838	1
0	248	22.415973200505	0
0	250	22.507769507105	1
0	252	22.521703541253	2
0	255	22.62087020792	0
0	257	22.641012403459	1
0	259	22.740179070126	0
0	261	23.17362087636	1
0	263	23.272787543027	0
0	265	23.669468859089	1
0	267	23.768635525756	0
0	269	23.896589632215	1
0	271	23.92529709053	2
0	274	24.024463757197	0
0	276	24.113094880249	1
0	278	24.212261546916	0
0	280	24.384539934686	1
0	282	24.483706601353	0
0	284	24.755206666991	1
0	286	24.854373333658	0
0	288	24.978928430612	1
0	290	25.078095097279	0
0	292	25.432601041543	1
0	294	25.435732267686	2
0	296	25.450711243428	2
0	300	25.549877910095	0
0	302	25.742570589122	1
0	304	25.758999207215	2
0	307	25.858165873882	0
0	309	25.971827929691	1
0	311	26.070994596358	0
0	313	26.402929748396	1
0	315	26.502096415063	0
0	317	26.824340916797	1
0	319	26.923507583464	0
0	321	27.124221939429	1
0	323	27.160368037047	2
0	326	27.259534703714	0
0	328	27.270601601504	1
0	330	27.369768268171	0
0	332	27.46093597337	1
0	334	27.560102640037	0
0	336	27.749337133025	1
0	338	27.848503799692	0
0	340	28.79071732595	1
0	342	28.889883992617	0
0	344	29.068105032277	1
0	346	29.167271698944	0
0	348	29.301554487476	1
0	350	29.400721154143	0
0	352	29.764233809205	1
0	354	29.863400475872	0
0	356	30.245888666166	1
0	358	30.345055332833	0
0	360	30.51462765445	1
0	362	30.586605539333	2
0	365	30.685772206	0
0	367	32.012749589912	1
0	369	32.111916256579	0
0	371	32.397610324294	1
0	373	32.496776990961	0
0	375	32.656963308992	1
0	377	32.756129975659	0
0	379	32.793596283578	1
0	381	32.892762950245	0
0	383	33.902266818396	1
0	385	34.001433485063	0
0	387	34.236542740029	1
0	389	34.335709406696	0
0	391	34.444173846457	1
0	393	34.543340513124	0
0	395	34.612790458381	1
0	397	34.711957125048	0
0	399	35.657447936048	1
0	401	35.756614602715	0
0	403	35.820319531313	1
0	405	35.891707461516	2
0	407	35.911436983833	2
0	411	36.0106036505	0
0	413	36.168094558862	1
0	415	36.21437967307	2
0	418	36.313546339737	0
0	420	36.482749881165	1
0	422	36.50334981079	2
0	425	36.602516477457	0
0	427	36.940779157153	1
0	429	37.03994582382	0
0	431	37.049902593116	1
0	433	37.083300278847	2
0	436	37.182466945514	0
0	438	37.239593957109	1
0	440	37.338760623776	0
0	442	37.614912166709	1
0	444	37.657754176549	2
0	447	37.756920843216	0
0	449	37.967165332365	1
0	451	37.989365435993	2
0	454	38.08853210266	0
0	456	38.297464493756	1
0	458	38.396631160423	0
0	460	39.058954149146	1
0	462	39.158120815813	0
0	464	39.218329145115	1
0	466	39.317495811782	0
0	468	39.976242830641	1
0	470	40.075409497308	0
0	472	40.088315039914	1
0	474	40.135741455564	2
0	477	40.234908122231	0
0	479	40.690491689055	1
0	481	40.789658355722	0
0	483	41.144147739189	1
0	485	41.198310586867	2
0	488	41.297477253534	0
0	490	41.564315271582	1
0	492	41.663481938249	0
0	494	41.68753031172	1
0	496	41.786696978387	0
0	498	42.018793617012	1
0	500	42.094276896011	2
0	503	42.175976205042	2
0	506	42.275142871709	0
0	508	42.703014089222	1
0	510	42.802180755889	0
0	512	43.549215785775	1
0	514	43.648382452442	0
0	516	43.967222846499	1
0	518	44.066389513166	0
0	520	44.107124246987	1
0	522	44.206290913654	0
0	524	45.656939297821	1
0	526	45.756105964488	0
0	528	46.051685631462	1
0	530	46.150852298129	0
0	532	46.790829591202	1
0	534	46.828136126084	2
0	537	46.927302792751	0
0	539	47.683111881971	1
0	541	47.770644018093	2
0	544	47.86981068476	0
0	546	47.889649774972	1
0	548	47.988816441639	0
0	550	48.28934278822	1
0	552	48.293074960162	2
0	555	48.392241626829	0
0	557	48.425849100448	1
0	559	48.485787221028	2
0	562	48.584953887695	0
0	564	48.640310746805	1
0	566	48.739477413472	0
0	568	48.880754580714	1
0	570	48.959970000537	2
0	573	49.059136667204	0
0	575	49.092825302097	1
0	577	49.191991968764	0
0	579	49.263128680272	1
0	581	49.362295346939	0
0	583	49.556724527058	1
0	585	49.655891193725	0
0	587	49.822006281551	1
0	589	49.865987533606	2
0	592	49.965154200273	0
0	594	50.317305747473	1
0	596	50.41647241414	0
0	598	51.011348907154	1
0	600	51.110515573821	0
0	602	51.73784736373	1
0	604	51.837014030397	0
0	606	52.090371718327	1
0	608	52.189538384994	0
0	610	52.191537479629	1
0	612	52.290704146296	0
0	614	52.352510608011	1
0	616	52.451677274678	0
0	618	52.779989517665	1
0	620	52.879156184332	0
0	622	54.33395972495	1
0	624	54.370025389325	2
0	626	54.417080044727	2
0	629	54.448850951865	2
0	633	54.548017618532	0
0	635	54.597802698273	1
0	637	54.69696936494	0
0	639	55.053255946325	1
0	641	55.152422612992	0
0	643	55.364660204558	1
0	645	55.429391905207	2
0	648	55.528558571874	0
0	650	55.694976506618	1
0	652	55.794143173285	0
0	654	56.059133895705	1
0	656	56.158300562372	0
0	658	56.667824107406	1
0	660	56.672482571419	2
0	663	56.771649238086	0
0	665	56.792233708328	1
0	667	56.891400374995	0
0	669	57.765191558504	1
0	671	57.864358225171	0
0	673	58.426355379834	1
0	675	58.525522046501	0
0	677	58.57838303241	1
0	679	58.677549699077	0
0	681	58.92782730645	1
0	683	59.026993973117	0
0	685	59.565732011428	1
0	687	59.664898678095	0
0	689	59.761945779161	1
0	691	59.861112445828	0
0	693	59.888167258457	1
0	695	59.929425866519	2
0	698	60.00183329532	2
0	701	60.100999961987	0
0	703	60.643464507626	1
0	705	60.742631174293	0
0	707	61.003681223798	1
0	709	61.102847890465	0
0	711	61.505842585037	1
0	713	61.605009251704	0
0	715	61.705922867643	1
0	717	61.80508953431	0
0	719	62.421577745023	1
0	721	62.43254909599	2
0	724	62.531715762657	0
0	726	62.674001672197	1
0	728	62.773168338864	0
0	730	63.234778198187	1
0	732	63.333944864854	0
0	734	63.593033107318	1
0	736	63.692199773985	0
0	738	63.734282658997	1
0	740	63.833449325664	0
0	742	64.597202037911	1
0	744	64.696368704578	0
0	746	66.062307299993	1
0	748	66.077638161346	2
0	751	66.176804828013	0
0	753	67.174617151641	1
0	755	67.273783818308	0
0	757	67.620179123813	1
0	759	67.71934579048	0
0	761	67.972136648148	1
0	763	68.071303314815	0
0	765	68.130420112297	1
0	767	68.229586778964	0
0	769	68.313057349978	1
0	771	68.412224016645	0
0	773	68.620999585253	1
0	775	68.670282776465	2
0	778	68.769449443132	0
0	780	69.314340489724	1
0	782	69.405362697607	2
0	785	69.504529364274	0
0	787	69.952917889986	1
0	789	69.960552894032	2
0	792	70.059719560699	0
0	794	71.509133010663	1
0	796	71.60829967733	0
0	798	72.515818620511	1
0	800	72.614985287178	0
0	802	72.820373881147	1
0	804	72.829987869417	2
0	807	72.929154536084	0
0	809	73.039558529058	1
0	811	73.138725195725	0
0	813	73.218659801527	1
0	815	73.317826468194	0
0	817	73.687206609651	1
0	819	73.786373276318	0
0	821	73.978122864475	1
0	823	74.077289531142	0
0	825	74.337411063237	1
0	827	74.358190064098	2
0	830	74.457356730765	0
0	832	74.721673362543	1
0	834	74.82084002921	0
0	836	75.279248292679	1
0	838	75.378414959346	0
0	840	75.555457522168	1
0	842	75.643994931439	2
0	845	75.743161598106	0
0	847	76.075005291121	1
0	849	76.129507389702	2
0	852	76.228674056369	0
0	854	76.989405467798	1
0	856	77.088572134465	0
0	858	77.097253809966	1
0	860	77.098944585482	2
0	863	77.198111252149	0
0	865	77.382353632168	1
0	867	77.481520298835	0
0	869	77.542860667622	1
0	871	77.642027334289	0
0	873	77.75869472166	1
0	875	77.857861388327	0
0	877	78.142059543608	1
0	879	78.241226210275	0
0	881	78.636884581736	1
0	883	78.736051248403	0
0	885	79.143247408677	1
0	887	79.242414075344	0
0	889	79.273632848492	1
0	891	79.372799515159	0
0	893	79.569299608603	1
0	895	79.656598522848	2
0	898	79.755765189515	0
0	900	79.865966978575	1
0	902	79.965133645242	0
0	904	80.233176396541	1
0	906	80.332343063208	0
0	908	80.58740704196	1
0	910	80.599067747515	2
0	913	80.698234414182	0
0	915	80.989433938253	1
0	917	81.08860060492	0
0	919	81.21583335343	1
0	921	81.231015393952	2
0	924	81.330182060619	0
0	926	81.411317794332	1
0	928	81.510484460999	0
0	930	81.616490448159	1
0	932	81.715657114826	0
0	934	81.744304272218	1
0	936	81.843470938885	0
0	938	81.874892787128	1
0	940	81.974059453795	0
0	942	82.162508055866	1
0	944	82.261674722533	0
0	946	82.594835387447	1
0	948	82.694002054114	0
0	950	82.89053838923	1
0	952	82.989705055897	0
0	954	83.592695033897	1
0	956	83.691861700564	0
0	958	83.868849048583	1
0	960	83.918728527617	2
0	963	84.017895194284	0
0	965	85.645538658995	1
0	967	85.659921481734	2
0	970	85.759088148401	0
0	972	85.929762352765	1
0	974	86.028929019432	0
0	976	86.319697855495	1
0	978	86.418864522162	0
0	980	86.860073362781	1
0	982	86.899869599481	2
0	984	86.952342985882	2
0	988	87.051509652549	0
0	990	87.248380110584	1
0	992	87.347546777251	0
0	994	88.13234583799	1
0	996	88.231512504657	0
0	998	88.294587768375	1
0	1000	88.393754435042	0
0	1002	88.481950730218	1
0	1004	88.581117396885	0
0	1006	89.05525198078	1
0	1008	89.154418647447	0
0	1010	89.497961795785	1
0	1012	89.597128462452	0
0	1014	89.72413192864	1
0	1016	89.73072453579	2
0	1018	89.793322500734	2
0	1022	89.892489167401	0
0	1024	90.02977931637	1
0	1026	90.128945983037	0
0	1028	90.171042295187	1
0	1030	90.254525006826	2
0	1033	90.353691673493	0
0	1035	91.353966015032	1
0	1037	91.373246305517	2
0	1040	91.472412972184	0
0	1042	91.812409132917	1
0	1044	91.911575799584	0
0	1046	92.274377752525	1
0	1048	92.373544419192	0
0	1050	92.738015737844	1
0	1052	92.837182404511	0
0	1054	93.20420231253	1
0	1056	93.303368979197	0
0	1058	93.398243676796	1
0	1060	93.472544878162	2
0	1063	93.571711544829	0
0	1065	94.641406638534	1
0	1067	94.740573305201	0
0	1069	94.953441416756	1
0	1071	95.052608083423	0
0	1073	95.127912701694	1
0	1075	95.227079368361	0
0	1077	95.929027940273	1
0	1079	96.02819460694	0
0	1081	96.08586295413	1
0	1083	96.185029620797	0
0	1085	96.413630007034	1
0	1087	96.512796673701	0
0	1089	96.846109030795	1
0	1091	96.945275697462	0
0	1093	97.245777581173	1
0	1095	97.34494424784	0
0	1097	97.801057849805	1
0	1099	97.900224516472	0
0	1101	98.300261158009	1
0	1103	98.337579976716	2
0	1105	98.357721739375	2
0	1109	98.456888406042	0
0	1111	98.972172317402	1
0	1113	99.071338984069	0
0	1115	99.770084124479	1
0	1117	99.869250791146	0
0	1119	100.160228405669	1
0	1121	100.259395072336	0
0	1123	100.704002533614	1
0	1125	100.803169200281	0
0	1127	101.353890844328	1
0	1129	101.405836078004	2
0	1132	101.4897087164	2
0	1135	101.588875383067	0
0	1137	101.609806433679	1
0	1139	101.663182571896	2
0	1142	101.762349238563	0
0	1144	102.294193198381	1
0	1146	102.393359865048	0
0	1148	102.420476155101	1
0	1150	102.512646333498	2
0	1153	102.611813000165	0
0	1155	102.714338557464	1
0	1157	102.813505224131	0
0	1159	103.064117159013	1
0	1161	103.16328382568	0
0	1163	103.43647084754	1
0	1165	103.535637514207	0
0	1167	103.564682574919	1
0	1169	103.663849241586	0
0	1171	103.882459398824	1
0	1173	103.981626065491	0
0	1175	105.068543436391	1
0	1177	105.167710103058	0
0	1179	105.172262928642	1
0	1181	105.271429595309	0
0	1183	105.471004372191	1
0	1185	105.570171038858	0
0	1187	105.656030249869	1
0	1189	105.755196916536	0
0	1191	105.907321965366	1
0	1193	106.006488632033	0
0	1195	106.753654269801	1
0	1197	106.852820936468	0
0	1199	107.233653816686	1
0	1201	107.332820483353	0
0	1203	107.393371298009	1
0	1205	107.492537964676	0
0	1207	107.629930059429	1
0	1209	107.66064824681	2
0	1212	107.759814913477	0
0	1214	108.483842250655	1
0	1216	108.583008917322	0
0	1218	109.09306128754	1
0	1220	109.192227954207	0
0	1222	109.618117678907	1
0	1224	109.717284345574	0
0	1226	109.875936228349	1
0	1228	109.975102895016	0
0	1230	110.141194225287	1
0	1232	110.215177641155	2
0	1235	110.314344307822	0
0	1237	110.487016005574	1
0	1239	110.532934718949	2
0	1242	110.627522256825	2
0	1245	110.726688923492	0
0	1247	111.019054084349	1
0	1249	111.118220751016	0
0	1251	111.164955175688	1
0	1253	111.264121842355	0
0	1255	111.609100281749	1
0	1257	111.614518398819	2
0	1259	111.633122129948	2
0	1261	111.704336846017	2
0	1266	111.803503512684	0
0	1268	111.804807945922	1
0	1270	111.903974612589	0
0	1272	112.057593312626	1
0	1274	112.060534922211	2
0	1276	112.101218108693	2
0	1280	112.20038477536	0
0	1282	112.860543463724	1
0	1284	112.959710130391	0
0	1286	113.076296352382	1
0	1288	113.175463019049	0
0	1290	113.468294326942	1
0	1292	113.567460993609	0
0	1294	113.689010407675	1
0	1296	113.788177074342	0
0	1298	114.4309323696	1
0	1300	114.530099036267	0
0	1302	114.624122929108	1
0	1304	114.723289595775	0
0	1306	114.915707721403	1
0	1308	115.01487438807	0
0	1310	115.214153809054	1
0	1312	115.313320475721	0
0	1314	115.644647003093	1
0	1316	115.743480728277	2
0	1319	115.842647394944	0
0	1321	115.932596340045	1
0	1323	116.031763006712	0
0	1325	116.175220160211	1
0	1327	116.274386826878	0
0	1329	116.423022512912	1
0	1331	116.50457019649	2
0	1334	116.603736863157	0
0	1336	117.807886971674	1
0	1338	117.907053638341	0
0	1340	118.712529227599	1
0	1342	118.773556942509	2
0	1345	118.872723609176	0
0	1347	118.938226084361	1
0	1349	119.037392751028	0
0	1351	119.187096389425	1
0	1353	119.205857285399	2
0	1356	119.305023952066	0
0	1358	119.374513750115	1
0	1360	119.390378177972	2
0	1363	119.489544844639	0
0	1365	119.626264327665	1
0	1367	119.659150259979	2
0	1370	119.758316926646	0
0	1372	120.060489421735	1
0	1374	120.126213103819	2
0	1377	120.225379770486	0
0	1379	120.447178461299	1
0	1381	120.546345127966	0
0	1383	120.59939326122	1
0	1385	120.603937854607	2
0	1388	120.703104521274	0
0	1390	120.734163372548	1
0	1392	120.833330039215	0
0	1394	120.872124006832	1
0	1396	120.945067691407	2
0	1399	121.044234358074	0
0	1401	121.587511875104	1
0	1403	121.686678541771	0
0	1405	121.980446162844	1
0	1407	122.036286935257	2
0	1410	122.088621222824	2
0	1413	122.187787889491	0
0	1415	122.266408730104	1
0	1417	122.291422414081	2
0	1420	122.390589080748	0
0	1422	122.444820540563	1
0	1424	122.54398720723	0
0	1426	122.561643233268	1
0	1428	122.660809899935	0
0	1430	123.165626314894	1
0	1432	123.264792981561	0
0	1434	123.544286670127	1
0	1436	123.643453336794	0
0	1438	123.675249178873	1
0	1440	123.701010622555	2
0	1443	123.800177289222	0
0	1445	124.30463517233	1
0	1447	124.403801838997	0
0	1449	124.687445945111	1
0	1451	124.695183708772	2
0	1454	124.794350375439	0
0	1456	124.857617706594	1
0	1458	124.956784373261	0
0	1460	125.029672578446	1
0	1462	125.128839245113	0
0	1464	125.308533478683	1
0	1466	125.344561376624	2
0	1469	125.443728043291	0
0	1471	125.757124211293	1
0	1473	125.85629087796	0
0	1475	126.269380717005	1
0	1477	126.368547383672	0
0	1479	126.74070142183	1
0	1481	126.839868088497	0
0	1483	127.922370316504	1
0	1485	128.021536983171	0
0	1487	128.118593059639	1
0	1489	128.217759726306	0
0	1491	128.623955365304	1
0	1493	128.662134019549	2
0	1496	128.761300686216	0
0	1498	129.24536965522	1
0	1500	129.313819863033	2
0	1502	129.342276935998	2
0	1506	129.441443602665	0
0	1508	129.862204913608	1
0	1510	129.935311397617	2
0	1513	130.034478064284	0
0	1515	130.118791382463	1
0	1517	130.21795804913	0
0	1519	130.354597391489	1
0	1521	130.453764058156	0
0	1523	130.589176754044	1
0	1525	130.688343420711	0
0	1527	130.789998227613	1
0	1529	130.88916489428	0
0	1531	131.289120200018	1
0	1533	131.388286866685	0
0	1535	131.68302306253	1
0	1537	131.710162922142	2
0	1539	131.770999652741	2
0	1543	131.870166319408	0
0	1545	132.490171611338	1
0	1547	132.589338278005	0
0	1549	133.370615488581	1
0	1551	133.469782155248	0
0	1553	133.552039942643	1
0	1555	133.65120660931	0
0	1557	134.177702833333	1
0	1559	134.2768695	0
0	1561	134.631285021916	1
0	1563	134.730451688583	0
0	1565	134.8139614646	1
0	1567	134.913128131267	0
0	1569	136.584130608814	1
0	1571	136.683297275481	0
0	1573	137.145814590908	1
0	1575	137.19201534971	2
0	1578	137.291182016377	0
0	1580	137.49338384906	1
0	1582	137.592550515727	0
0	1584	137.800321515043	1
0	1586	137.89948818171	0
0	1588	138.402971993714	1
0	1590	138.502138660381	0
0	1592	138.540105008984	1
0	1594	138.639271675651	0
0	1596	139.018452371505	1
0	1598	139.117619038172	0
0	1600	139.143622848875	1
0	1602	139.183587523364	2
0	1605	139.249154938952	2
0	1608	139.348321605619	0
0	1610	139.349470524212	1
0	1612	139.448637190879	0
0	1614	139.801796125705	1
0	1616	139.816424529603	2
0	1619	139.91559119627	0
0	1621	140.163659875944	1
0	1623	140.262826542611	0
0	1625	140.292445932274	1
0	1627	140.391612598941	0
0	1629	140.773330807957	1
0	1631	140.789933898669	2
0	1633	140.810871636467	2
0	1635	140.855732528827	2
0	1640	140.954899195494	0
0	1642	141.073524508762	1
0	1644	141.172691175429	0
0	1646	142.200840182598	1
0	1648	142.300006849265	0
0	1650	142.30423147019	1
0	1652	142.403398136857	0
0	1654	142.527333446695	1
0	1656	142.626500113362	0
0	1658	143.272154383708	1
0	1660	143.371321050375	0
0	1662	143.533403914685	1
0	1664	143.632570581352	0
0	1666	144.818709632085	1
0	1668	144.905085530867	2
0	1671	145.004252197534	0
0	1673	145.144235237689	1
0	1675	145.152219080024	2
0	1678	145.251385746691	0
0	1680	145.503992325036	1
0	1682	145.585112294794	2
0	1685	145.684278961461	0
0	1687	145.688973105539	1
0	1689	145.788139772206	0
0	1691	145.819631834721	1
0	1693	145.918798501388	0
0	1695	146.350911563324	1
0	1697	146.450078229991	0
0	1699	146.842163218306	1
0	1701	146.941329884973	0
0	1703	147.304958944564	1
0	1705	147.404125611231	0
0	1707	147.522228959806	1
0	1709	147.544632736911	2
0	1712	147.643799403578	0
0	1714	147.913408694652	1
0	1716	148.012575361319	0
0	1718	148.341177140031	1
0	1720	148.440343806698	0
0	1722	148.6345078842	1
0	1724	148.733674550867	0
0	1726	148.79316462987	1
0	1728	148.892331296537	0
0	1730	149.246585790917	1
0	1732	149.345752457584	0
0	1734	149.86126912459	1
0	1736	149.960435791257	0
0	1738	149.962220474014	1
0	1740	150.061387140681	0
0	1742	150.155117569136	1
0	1744	150.192343234124	2
0	1747	150.291509900791	0
0	1749	150.364617896779	1
0	1751	150.463784563446	0
0	1753	150.621993303796	1
0	1755	150.721159970463	0
0	1757	150.860202613766	1
0	1759	150.935106438745	2
0	1762	151.034273105412	0
0	1764	152.214288425259	1
0	1766	152.313455091926	0
0	1768	152.357081170509	1
0	1770	152.456247837176	0
0	1772	153.053773157504	1
0	1774	153.140079446948	2
0	1777	153.239246113615	0
0	1779	153.286320876887	1
0	1781	153.385487543554	0
0	1783	154.314660354765	1
0	1785	154.413827021432	0
0	1787	155.454002516789	1
0	1789	155.553169183456	0
0	1791	155.595851757195	1
0	1793	155.695018423862	0
0	1795	155.955131743934	1
0	1797	155.990595659928	2
0	1799	155.997767967493	2
0	1803	156.09693463416	0
0	1805	156.921954990695	1
0	1807	157.021121657362	0
0	1809	158.089611650057	1
0	1811	158.188778316724	0
0	1813	158.566211946257	1
0	1815	158.665378612924	0
0	1817	158.767936536442	1
0	1819	158.867103203109	0
0	1821	158.890872776704	1
0	1823	158.896370434626	2
0	1826	158.995537101293	0
0	1828	159.112892536133	1
0	1830	159.114633261248	2
0	1833	159.213799927915	0
0	1835	159.263750542663	1
0	1837	159.36291720933	0
0	1839	159.724427926271	1
0	1841	159.823594592938	0
0	1843	159.85179563277	1
0	1845	159.950962299437	0
0	1847	160.211838922315	1
0	1849	160.311005588982	0
0	1851	160.94560053558	1
0	1853	161.044767202247	0
0	1855	161.05951383361	1
0	1857	161.158680500277	0
0	1859	161.206523483359	1
0	1861	161.305690150026	0
0	1863	161.387485382604	1
0	1865	161.486652049271	0
0	1867	161.559856362588	1
0	1869	161.659023029255	0
0	1871	161.949696916352	1
0	1873	162.048863583019	0
0	1875	162.64704308485	1
0	1877	162.746209751517	0
0	1879	162.901940726337	1
0	1881	162.94483535967	2
0	1884	163.044002026337	0
0	1886	163.15103860769	1
0	1888	163.250205274357	0
0	1890	163.313424528344	1
0	1892	163.412591195011	0
0	1894	164.039077475158	1
0	1896	164.138244141825	0
0	1898	164.175803219502	1
0	1900	164.207260575136	2
0	1903	164.306427241803	0
0	1905	164.738567116652	1
0	1907	164.837733783319	0
0	1909	164.901198780078	1
0	1911	164.913722941555	2
0	1914	165.012889608222	0
0	1916	166.678388449092	1
0	1918	166.777555115759	0
0	1920	167.532829393406	1
0	1922	167.631996060073	0
0	1924	167.662015078284	1
0	1926	167.761181744951	0
0	1928	167.977011385673	1
0	1930	168.07617805234	0
0	1932	169.477481190957	1
0	1934	169.576647857624	0
0	1936	169.855389471152	1
0	1938	169.954556137819	0
0	1940	170.251888614286	1
0	1942	170.351055280953	0
0	1944	170.964365663146	1
0	1946	171.063532329813	0
0	1948	171.153496526278	1
0	1950	171.252663192945	0
0	1952	171.444954268764	1
0	1954	171.497053557582	2
0	1957	171.596220224249	0
0	1959	171.826373246602	1
0	1961	171.925539913269	0
0	1963	172.09941650417	1
0	1965	172.198583170837	0
0	1967	172.545840898516	1
0	1969	172.645007565183	0
0	1971	172.738706132719	1
0	1973	172.784836575539	2
0	1976	172.876920016209	2
0	1979	172.902438172306	2
0	1982	173.001604838973	0
0	1984	173.217518823407	1
0	1986	173.283147853673	2
0	1989	173.342630829791	2
0	1992	173.441797496458	0
0	1994	173.694839195735	1
0	1996	173.794005862402	0
0	1998	173.921645753374	1
0	2000	174.020812420041	0
0	2002	174.304142655489	1
0	2004	174.403309322156	0
0	2006	174.491366731374	1
0	2008	174.555380716531	2
0	2011	174.654547383198	0
0	2013	174.714727781634	1
0	2015	174.813894448301	0
0	2017	174.834601587864	1
0	2019	174.933768254531	0
0	2021	175.06935777802	1
0	2023	175.168524444687	0
0	2025	175.674052085097	1
0	2027	175.773218751764	0
0	2029	175.794576048358	1
0	2031	175.795121795551	2
0	2034	175.894288462218	0
0	2036	176.099777979612	1
0	2038	176.186773638576	2
0	2041	176.285940305243	0
0	2043	176.361027381452	1
0	2045	176.460194048119	0
0	2047	176.491320125242	1
0	2049	176.590486791909	0
0	2051	176.63281176402	1
0	2053	176.731978430687	0
0	2055	176.815721837927	1
0	2057	176.889477584425	2
0	2060	176.988644251092	0
0	2062	177.358291904707	1
0	2064	177.457458571374	0
0	2066	177.704322306092	1
0	2068	177.803488972759	0
0	2070	177.82947615752	1
0	2072	177.928642824187	0
0	2074	177.969592767471	1
0	2076	177.969899788286	2
0	2078	178.037926619506	2
0	2082	178.137093286173	0
0	2084	178.138648453062	1
0	2086	178.21550582676	2
0	2089	178.239068925716	2
0	2092	178.338235592383	0
0	2094	178.467374833541	1
0	2096	178.564342348302	2
0	2099	178.663509014969	0
0	2101	179.195171110368	1
0	2103	179.294337777035	0
0	2105	179.722160756677	1
0	2107	179.821327423344	0
0	2109	179.912889158165	1
0	2111	180.012055824832	0
0	2113	180.092928245399	1
0	2115	180.146613556006	2
0	2118	180.2373783071	2
0	2121	180.336544973767	0
0	2123	180.895197757732	1
0	2125	180.994364424399	0
0	2127	181.375800304567	1
0	2129	181.474966971234	0
0	2131	181.615585617481	1
0	2133	181.696127080424	2
0	2136	181.795293747091	0
0	2138	182.073296154131	1
0	2140	182.114918978887	2
0	2143	182.214085645554	0
0	2145	182.698605397752	1
0	2147	182.744246518942	2
0	2150	182.817662177821	2
0	2153	182.916828844488	0
0	2155	183.511702762629	1
0	2157	183.610869429296	0
0	2159	183.66964365205	1
0	2161	183.768810318717	0
0	2163	183.890146059658	1
0	2165	183.942199498302	2
0	2168	184.041366164969	0
0	2170	184.11326680252	1
0	2172	184.212433469187	0
0	2174	184.618649502802	1
0	2176	184.702157603311	2
0	2179	184.801324269978	0
0	2181	184.91027290851	1
0	2183	185.009439575177	0
0	2185	185.112200562186	1
0	2187	185.211367228853	0
0	2189	185.328308593563	1
0	2191	185.42747526023	0
0	2193	186.132784840681	1
0	2195	186.138009230104	2
0	2197	186.215596441989	2
0	2201	186.314763108656	0
0	2203	186.316322527042	1
0	2205	186.328778186507	2
0	2207	186.393627914737	2
0	2211	186.492794581404	0
0	2213	187.143736189299	1
0	2215	187.242902855966	0
0	2217	187.44644922075	1
0	2219	187.545615887417	0
0	2221	187.578832570173	1
0	2223	187.662904856857	2
0	2226	187.762071523524	0
0	2228	188.973552385877	1
0	2230	189.072719052544	0
0	2232	189.51174032944	1
0	2234	189.610906996107	0
0	2236	190.356673653253	1
0	2238	190.428538182056	2
0	2241	190.527704848723	0
0	2243	190.586843817543	1
0	2245	190.68601048421	0
0	2247	191.000804020219	1
0	2249	191.029507990598	2
0	2252	191.128674657265	0
0	2254	191.152395611848	1
0	2256	191.206949480818	2
0	2259	191.306116147485	0
0	2261	191.313867178354	1
0	2263	191.413033845021	0
0	2265	191.744354712966	1
0	2267	191.843521379633	0
0	2269	191.875690452247	1
0	2271	191.93349144559	2
0	2273	191.968701237818	2
0	2277	192.067867904485	0
0	2279	192.83396058722	1
0	2281	192.912400208332	2
0	2284	193.011566874999	0
0	2286	193.027776947062	1
0	2288	193.031933636067	2
0	2290	193.126073867419	2
0	2294	193.225240534086	0
0	2296	193.48772387827	1
0	2298	193.56480605094	2
0	2301	193.641148041425	2
0	2304	193.740314708092	0
0	2306	193.929904058056	1
0	2308	194.028030586271	2
0	2311	194.127197252938	0
0	2313	194.286880514652	1
0	2315	194.386047181319	0
0	2317	194.594068562699	1
0	2319	194.663184981204	2
0	2322	194.762351647871	0
0	2324	195.033847891564	1
0	2326	195.133014558231	0
0	2328	195.465816889194	1
0	2330	195.564983555861	0
0	2332	195.57461581915	1
0	2334	195.673782485817	0
0	2336	195.834823631694	1
0	2338	195.933990298361	0
0	2340	198.505709319309	1
0	2342	198.604875985976	0