version 3
run PureAlohaExperiment-19-20260306-12:10:19-8840
attr configname PureAlohaExperiment
attr datetime 20260306-12:10:19
attr datetimef 20260306-121019
attr experiment PureAlohaExperiment
attr inifile omnetpp.ini
attr iterationvars "$numHosts=15, $iaMean=3"
attr iterationvarsd numHosts=15/iaMean=3
attr iterationvarsf numHosts=15,iaMean=3-
attr measurement "$numHosts=15, $iaMean=3"
attr network Aloha
attr processid 8840
attr repetition 1
attr replication #1
attr resultdir results
attr runnumber 19
attr seedset 19
itervar iaMean 3
itervar numHosts 15
config description "Channel utilization in the function of packet generation frequency"
config repeat 2
config sim-time-limit 90min
config Aloha.numHosts 15
config Aloha.host[*].iaTime exponential(3s)
config network Aloha
config Aloha.numHosts 20
config Aloha.slotTime 0s
config Aloha.txRate 9.6kbps
config Aloha.host[*].pkLenBits 952b
config **.x "uniform(0m, 1000m)"
config **.y "uniform(0m, 1000m)"
config **.animationHoldTimeOnCollision 0s
config **.idleAnimationSpeed 1
config **.transmissionEdgeAnimationSpeed 1e-6
config **.midTransmissionAnimationSpeed 1e-1

vector 0 Aloha.server serverChannelState:vector ETV
attr enum IDLE=0,TRANSMISSION=1,COLLISION=2
attr recordingmode vector
attr source channelState
attr title "Channel state"
vector 1 Aloha.host[0] radioState:vector ETV
attr enum IDLE=0,TRANSMIT=1
attr recordingmode vector
attr source state
attr title "Radio state"
vector 2 Aloha.host[1] radioState:vector ETV
attr enum IDLE=0,TRANSMIT=1
attr recordingmode vector
attr source state
attr title "Radio state"
vector 3 Aloha.host[2] radioState:vector ETV
attr enum IDLE=0,TRANSMIT=1
attr recordingmode vector
attr source state
attr title "Radio state"
vector 4 Aloha.host[3] radioState:vector ETV
attr enum IDLE=0,TRANSMIT=1
attr recordingmode vector
attr source state
attr title "Radio state"
vector 5 Aloha.host[4] radioState:vector ETV
attr enum IDLE=0,TRANSMIT=1
attr recordingmode vector
attr source state
attr title "Radio state"
vector 6 Aloha.host[5] radioState:vector ETV
attr enum IDLE=0,TRANSMIT=1
attr recordingmode vector
attr source state
attr title "Radio state"
vector 7 Aloha.host[6] radioState:vector ETV
attr enum IDLE=0,TRANSMIT=1
attr recordingmode vector
attr source state
attr title "Radio state"
vector 8 Aloha.host[7] radioState:vector ETV
attr enum IDLE=0,TRANSMIT=1
attr recordingmode vector
attr source state
attr title "Radio state"
vector 9 Aloha.host[8] radioState:vector ETV
attr enum IDLE=0,TRANSMIT=1
attr recordingmode vector
attr source state
attr title "Radio state"
vector 10 Aloha.host[9] radioState:vector ETV
attr enum IDLE=0,TRANSMIT=1
attr recordingmode vector
attr source state
attr title "Radio state"
vector 11 Aloha.host[10] radioState:vector ETV
attr enum IDLE=0,TRANSMIT=1
attr recordingmode vector
attr source state
attr title "Radio state"
vector 12 Aloha.host[11] radioState:vector ETV
attr enum IDLE=0,TRANSMIT=1
attr recordingmode vector
attr source state
attr title "Radio state"
vector 13 Aloha.host[12] radioState:vector ETV
attr enum IDLE=0,TRANSMIT=1
attr recordingmode vector
attr source state
attr title "Radio state"
vector 14 Aloha.host[13] radioState:vector ETV
attr enum IDLE=0,TRANSMIT=1
attr recordingmode vector
attr source state
attr title "Radio state"
vector 15 Aloha.host[14] radioState:vector ETV
attr enum IDLE=0,TRANSMIT=1
attr recordingmode vector
attr source state
attr title "Radio state"
vector 16 Aloha.server channelUtilizationVector:vector ETV
attr interpolationmode linear
attr recordingmode vector
attr source timeavg(receive)
attr title "channel utilization evolution"
0	0	0	0
0	2	0.495009738898	1
0	4	0.594176405565	0
0	6	0.600913463396	1
0	8	0.700080130063	0
0	10	1.400079572615	1
0	12	1.468205473817	2
0	15	1.567372140484	0
0	17	1.902495410454	1
0	19	1.963581600075	2
0	22	2.062748266742	0
0	24	2.221397778262	1
0	26	2.282262722662	2
0	29	2.381429389329	0
0	31	2.45861306637	1
0	33	2.557779733037	0
0	35	2.809744271935	1
0	37	2.833240128106	2
0	40	2.932406794773	0
0	42	3.000654811123	1
0	44	3.086995548565	2
0	47	3.186162215232	0
0	49	3.497408615177	1
0	51	3.5332360525	2
0	53	3.565424629016	2
0	57	3.664591295683	0
0	59	3.797517460923	1
0	61	3.89668412759	0
0	63	3.923019368326	1
0	65	4.022186034993	0
0	67	4.244106385825	1
0	69	4.343273052492	0
0	71	4.506570429852	1
0	73	4.603159130939	2
0	76	4.657326415133	2
0	79	4.7564930818	0
0	81	5.765713782963	1
0	83	5.86488044963	0
0	85	6.032862771385	1
0	87	6.054851858725	2
0	90	6.154018525392	0
0	92	6.432196283123	1
0	94	6.53136294979	0
0	96	6.542186796214	1
0	98	6.641353462881	0
0	100	6.700477513932	1
0	102	6.799644180599	0
0	104	6.80699685733	1
0	106	6.906163523997	0
0	108	6.959115728642	1
0	110	7.026879093096	2
0	113	7.126045759763	0
0	115	7.176770996509	1
0	117	7.275937663176	0
0	119	7.286655937065	1
0	121	7.3369518231	2
0	124	7.436118489767	0
0	126	7.571635391579	1
0	128	7.670802058246	0
0	130	7.715398210449	1
0	132	7.769913641198	2
0	134	7.811326125431	2
0	138	7.900554421827	2
0	141	7.941686103177	2
0	144	8.040852769844	0
0	146	8.053437085975	1
0	148	8.056391411023	2
0	150	8.12696396484	2
0	154	8.226130631507	0
0	156	8.317027856849	1
0	158	8.416194523516	0
0	160	8.587349581078	1
0	162	8.647550873253	2
0	165	8.74671753992	0
0	167	8.758602971516	1
0	169	8.765219671901	2
0	172	8.864386338568	0
0	174	8.873580025168	1
0	176	8.972746691835	0
0	178	9.010591879694	1
0	180	9.109758546361	0
0	182	9.392791358179	1
0	184	9.491958024846	0
0	186	9.697540045755	1
0	188	9.796706712422	0
0	190	9.806904347181	1
0	192	9.906071013848	0
0	194	10.106173141975	1
0	196	10.205339808642	0
0	198	10.642706256715	1
0	200	10.741872923382	0
0	202	10.777187290685	1
0	204	10.824680466516	2
0	207	10.90026239142	2
0	209	10.904663500735	2
0	213	11.000618693565	2
0	216	11.096551781233	2
0	219	11.1957184479	0
0	221	11.310992894312	1
0	223	11.410159560979	0
0	225	11.421725889406	1
0	227	11.520892556073	0
0	229	12.001553494107	1
0	231	12.100720160774	0
0	233	12.296764745149	1
0	235	12.395931411816	0
0	237	12.7337269029	1
0	239	12.832893569567	0
0	241	13.013426319486	1
0	243	13.112592986153	0
0	245	13.557589832132	1
0	247	13.656756498799	0
0	249	14.314534999016	1
0	251	14.413701665683	0
0	253	14.649260555233	1
0	255	14.7484272219	0
0	257	14.846087962805	1
0	259	14.945254629472	0
0	261	15.01793598659	1
0	263	15.117102653257	0
0	265	15.212434183543	1
0	267	15.31160085021	0
0	269	15.452033168298	1
0	271	15.551199834965	0
0	273	15.823114526941	1
0	275	15.885204363169	2
0	277	15.908166924163	2
0	281	16.00733359083	0
0	283	16.093624742943	1
0	285	16.19279140961	0
0	287	16.28273844723	1
0	289	16.381905113897	0
0	291	16.536062660271	1
0	293	16.588989843637	2
0	296	16.688156510304	0
0	298	16.699647052387	1
0	300	16.798813719054	0
0	302	16.930669215478	1
0	304	17.029835882145	0
0	306	18.210954967545	1
0	308	18.310121634212	0
0	310	18.61238660507	1
0	312	18.711553271737	0
0	314	18.757226235401	1
0	316	18.775874301851	2
0	319	18.875040968518	0
0	321	19.31675623016	1
0	323	19.415922896827	0
0	325	19.671008876036	1
0	327	19.770175542703	0
0	329	20.102066039226	1
0	331	20.12251773894	2
0	334	20.221684405607	0
0	336	20.307409182424	1
0	338	20.406575849091	0
0	340	20.456583372765	1
0	342	20.555750039432	0
0	344	20.741595148173	1
0	346	20.761632239703	2
0	348	20.807217394711	2
0	352	20.906384061378	0
0	354	21.223175628355	1
0	356	21.322342295022	0
0	358	21.328412711546	1
0	360	21.427579378213	0
0	362	21.430409989682	1
0	364	21.44728410855	2
0	367	21.534905189538	2
0	370	21.634071856205	0
0	372	21.736302587295	1
0	374	21.835469253962	0
0	376	21.84717093215	1
0	378	21.886335087711	2
0	381	21.985501754378	0
0	383	22.147165978569	1
0	385	22.149284891145	2
0	388	22.248451557812	0
0	390	22.65804560723	1
0	392	22.757212273897	0
0	394	22.924919473264	1
0	396	23.024086139931	0
0	398	23.15876446844	1
0	400	23.257931135107	0
0	402	23.545258837066	1
0	404	23.56132459563	2
0	407	23.656436512072	2
0	409	23.65646210096	2
0	412	23.704145585689	2
0	414	23.736618393056	2
0	419	23.835785059723	0
0	421	24.069145192653	1
0	423	24.16831185932	0
0	425	24.575899297786	1
0	427	24.675065964453	0
0	429	24.912414035621	1
0	431	25.011580702288	0
0	433	25.060809910925	1
0	435	25.124443252503	2
0	438	25.22360991917	0
0	440	25.288915167499	1
0	442	25.388081834166	0
0	444	26.548797970603	1
0	446	26.64796463727	0
0	448	26.814242417349	1
0	450	26.902640768311	2
0	453	26.975833100703	2
0	456	27.07499976737	0
0	458	27.559924338153	1
0	460	27.65909100482	0
0	462	27.743301606707	1
0	464	27.842468273374	0
0	466	27.889523863086	1
0	468	27.988690529753	0
0	470	27.99254309802	1
0	472	28.091709764687	0
0	474	28.103257483454	1
0	476	28.202424150121	0
0	478	28.367403428406	1
0	480	28.466570095073	0
0	482	28.520692152976	1
0	484	28.541640134229	2
0	487	28.640806800896	0
0	489	28.921348398389	1
0	491	29.020515065056	0
0	493	29.022601836965	1
0	495	29.052611065099	2
0	498	29.151777731766	0
0	500	29.228817992535	1
0	502	29.273989997019	2
0	505	29.373156663686	0
0	507	29.486919457397	1
0	509	29.586086124064	0
0	511	29.964148534757	1
0	513	30.063315201424	0
0	515	30.259394996693	1
0	517	30.35856166336	0
0	519	30.504241055796	1
0	521	30.603407722463	0
0	523	30.622608170539	1
0	525	30.721774837206	0
0	527	30.848948512537	1
0	529	30.948115179204	0
0	531	31.018575392674	1
0	533	31.019699196256	2
0	536	31.118865862923	0
0	538	31.639625219326	1
0	540	31.738791885993	0
0	542	31.896060494618	1
0	544	31.995227161285	0
0	546	32.009294937821	1
0	548	32.108461604488	0
0	550	32.135882214269	1
0	552	32.187218332807	2
0	555	32.253887615721	2
0	558	32.353054282388	0
0	560	32.50895085642	1
0	562	32.597860217573	2
0	565	32.609975572114	2
0	568	32.709142238781	0
0	570	32.878631161243	1
0	572	32.97779782791	0
0	574	33.247177267916	1
0	576	33.33679867575	2
0	579	33.435965342417	0
0	581	33.436454028832	1
0	583	33.535620695499	0
0	585	33.642513667226	1
0	587	33.741680333893	0
0	589	34.651291481162	1
0	591	34.659059191351	2
0	594	34.758225858018	0
0	596	35.053020306095	1
0	598	35.152186972762	0
0	600	35.286771330696	1
0	602	35.385937997363	0
0	604	35.57031091066	1
0	606	35.669477577327	0
0	608	35.69418721867	1
0	610	35.696283358169	2
0	613	35.795450024836	0
0	615	36.531474283816	1
0	617	36.630640950483	0
0	619	37.119307944306	1
0	621	37.218474610973	0
0	623	37.643886441397	1
0	625	37.743053108064	0
0	627	37.855369095748	1
0	629	37.954535762415	0
0	631	38.066992029098	1
0	633	38.166158695765	0
0	635	38.668344999917	1
0	637	38.767511666584	0
0	639	39.024150965711	1
0	641	39.118831805094	2
0	644	39.124436777873	2
0	647	39.221338249491	2
0	650	39.320504916158	0
0	652	39.322279151176	1
0	654	39.421445817843	0
0	656	39.735587086493	1
0	658	39.749905144526	2
0	661	39.849071811193	0
0	663	40.044200640044	1
0	665	40.127509841539	2
0	668	40.226676508206	0
0	670	40.447857150864	1
0	672	40.508045215345	2
0	675	40.607211882012	0
0	677	40.758618915472	1
0	679	40.830285675092	2
0	682	40.929452341759	0
0	684	40.974729897719	1
0	686	41.056943940818	2
0	688	41.066772288381	2
0	692	41.16245044998	2
0	695	41.261617116647	0
0	697	41.561523396533	1
0	699	41.6606900632	0
0	701	41.663415508882	1
0	703	41.727663625253	2
0	706	41.82683029192	0
0	708	42.745154213444	1
0	710	42.844320880111	0
0	712	43.334345116886	1
0	714	43.433511783553	0
0	716	44.027593968538	1
0	718	44.126760635205	0
0	720	44.983105951371	1
0	722	44.995433232864	2
0	725	45.094599899531	0
0	727	45.324886777069	1
0	729	45.424053443736	0
0	731	45.597039709039	1
0	733	45.696206375706	0
0	735	45.970807229399	1
0	737	45.989641239215	2
0	740	46.088807905882	0
0	742	46.71667433592	1
0	744	46.815841002587	0
0	746	46.878506319029	1
0	748	46.91845284954	2
0	751	46.996606177329	2
0	754	47.039718606064	2
0	756	47.05975783036	2
0	760	47.158924497027	0
0	762	47.218088624488	1
0	764	47.292511148182	2
0	767	47.375810740046	2
0	770	47.474977406713	0
0	772	47.566324321087	1
0	774	47.587683152035	2
0	776	47.635009859419	2
0	778	47.654745797579	2
0	783	47.753912464246	0
0	785	47.756788126627	1
0	787	47.855954793294	0
0	789	48.091023274749	1
0	791	48.190189941416	0
0	793	48.593865007155	1
0	795	48.650968964538	2
0	798	48.750135631205	0
0	800	48.77723650569	1
0	802	48.818397810818	2
0	804	48.868100730655	2
0	807	48.892787262496	2
0	810	48.925052611126	2
0	812	48.965815954187	2
0	817	49.063794167956	2
0	820	49.162960834623	0
0	822	49.178400341679	1
0	824	49.277567008346	0
0	826	49.338971613926	1
0	828	49.37174135173	2
0	831	49.470908018397	0
0	833	49.693819474363	1
0	835	49.726963072349	2
0	838	49.826129739016	0
0	840	49.898846112412	1
0	842	49.928807469112	2
0	845	50.027974135779	0
0	847	50.05283153206	1
0	849	50.151998198727	0
0	851	50.429580744281	1
0	853	50.528747410948	0
0	855	50.916588261158	1
0	857	51.015754927825	0
0	859	51.435332397622	1
0	861	51.440274963794	2
0	864	51.539441630461	0
0	866	51.823671526395	1
0	868	51.922838193062	0
0	870	51.976304109984	1
0	872	52.075470776651	0
0	874	52.104103688938	1
0	876	52.159644078453	2
0	879	52.25881074512	0
0	881	52.293923727576	1
0	883	52.305406656795	2
0	885	52.360277033216	2
0	889	52.459443699883	0
0	891	52.459595302082	1
0	893	52.558761968749	0
0	895	52.734575750214	1
0	897	52.833742416881	0
0	899	53.430434393529	1
0	901	53.526029912196	2
0	904	53.625196578863	0
0	906	54.39290778772	1
0	908	54.492074454387	0
0	910	54.600350840255	1
0	912	54.699517506922	0
0	914	54.897743307189	1
0	916	54.989517380375	2
0	918	54.994274624214	2
0	921	55.041818891503	2
0	925	55.14098555817	0
0	927	55.358768543681	1
0	929	55.45659871463	2
0	932	55.555765381297	0
0	934	55.624148774653	1
0	936	55.693010775435	2
0	939	55.765866529469	2
0	942	55.80324501567	2
0	945	55.902411682337	0
0	947	56.062363830958	1
0	949	56.161530497625	0
0	951	56.194337911212	1
0	953	56.293504577879	0
0	955	56.372966333509	1
0	957	56.454690009079	2
0	960	56.548037674544	2
0	963	56.647204341211	0
0	965	56.752276099349	1
0	967	56.830561463255	2
0	970	56.858758632436	2
0	973	56.937626899117	2
0	976	57.036793565784	0
0	978	57.224100786885	1
0	980	57.255817192448	2
0	982	57.291808472405	2
0	985	57.334925710536	2
0	987	57.336379390182	2
0	992	57.435546056849	0
0	994	57.485019162034	1
0	996	57.584185828701	0
0	998	57.707451858388	1
0	1000	57.802153585885	2
0	1003	57.831835691524	2
0	1005	57.884128355817	2
0	1008	57.905713987398	2
0	1012	58.004880654065	0
0	1014	58.184334751371	1
0	1016	58.283501418038	0
0	1018	58.300495110245	1
0	1020	58.399661776912	0
0	1022	58.406622762348	1
0	1024	58.505789429015	0
0	1026	58.511933714679	1
0	1028	58.573512291378	2
0	1031	58.672678958045	0
0	1033	58.697506244866	1
0	1035	58.796672911533	0
0	1037	58.908510513624	1
0	1039	58.928440054889	2
0	1042	59.027606721556	0
0	1044	59.072915598806	1
0	1046	59.172082265473	0
0	1048	59.806263598196	1
0	1050	59.905430264863	0
0	1052	60.127519516833	1
0	1054	60.128882241858	2
0	1057	60.228048908525	0
0	1059	60.423464532491	1
0	1061	60.522631199158	0
0	1063	60.602691031846	1
0	1065	60.603420922148	2
0	1067	60.658746486353	2
0	1071	60.733863398062	2
0	1074	60.833030064729	0
0	1076	61.076995048944	1
0	1078	61.176161715611	0
0	1080	61.426479371705	1
0	1082	61.525646038372	0
0	1084	61.604422586265	1
0	1086	61.683123869057	2
0	1089	61.782290535724	0
0	1091	61.937204545445	1
0	1093	61.959065092656	2
0	1096	62.058231759323	0
0	1098	62.080307337729	1
0	1100	62.179474004396	0
0	1102	62.365535246384	1
0	1104	62.464701913051	0
0	1106	63.342835433973	1
0	1108	63.44200210064	0
0	1110	63.915379932236	1
0	1112	64.014546598903	0
0	1114	64.194159710651	1
0	1116	64.264904800699	2
0	1119	64.35465500866	2
0	1122	64.412801700025	2
0	1125	64.511968366692	0
0	1127	64.657916974181	1
0	1129	64.757083640848	0
0	1131	64.76961349638	1
0	1133	64.782907395105	2
0	1136	64.882074061772	0
0	1138	65.026418775155	1
0	1140	65.091651056349	2
0	1142	65.125557872309	2
0	1146	65.224724538976	0
0	1148	65.462840080529	1
0	1150	65.562006747196	0
0	1152	65.597060384327	1
0	1154	65.629664850419	2
0	1157	65.728831517086	0
0	1159	66.09174485211	1
0	1161	66.190911518777	0
0	1163	66.265077580036	1
0	1165	66.364244246703	0
0	1167	66.395310260917	1
0	1169	66.494476927584	0
0	1171	66.687240848541	1
0	1173	66.786407515208	0
0	1175	66.805017027533	1
0	1177	66.9041836942	0
0	1179	66.985643232568	1
0	1181	67.084809899235	0
0	1183	67.138824911816	1
0	1185	67.237991578483	0
0	1187	67.463694383961	1
0	1189	67.552716515676	2
0	1192	67.587947133674	2
0	1194	67.616763912858	2
0	1198	67.715930579525	0
0	1200	67.80158055587	1
0	1202	67.900747222537	0
0	1204	68.023790373746	1
0	1206	68.122957040413	0
0	1208	68.206529392057	1
0	1210	68.305696058724	0
0	1212	68.377663070356	1
0	1214	68.476829737023	0
0	1216	68.640406415429	1
0	1218	68.739573082096	0
0	1220	68.872624421904	1
0	1222	68.88517528565	2
0	1225	68.984341952317	0
0	1227	69.0248606744	1
0	1229	69.124027341067	0
0	1231	69.376101313759	1
0	1233	69.475267980426	0
0	1235	69.826504301047	1
0	1237	69.925670967714	0
0	1239	70.023652628951	1
0	1241	70.122819295618	0
0	1243	70.144930653004	1
0	1245	70.244097319671	0
0	1247	70.244509399791	1
0	1249	70.275219164039	2
0	1252	70.374385830706	0
0	1254	70.486927373834	1
0	1256	70.50299966589	2
0	1259	70.602166332557	0
0	1261	70.715119729563	1
0	1263	70.81428639623	0
0	1265	70.871544783055	1
0	1267	70.970711449722	0
0	1269	71.103688964796	1
0	1271	71.104897035678	2
0	1274	71.204063702345	0
0	1276	71.208470401159	1
0	1278	71.267664927644	2
0	1281	71.366831594311	0
0	1283	71.630276690562	1
0	1285	71.690745846649	2
0	1288	71.789912513316	0
0	1290	71.844261518012	1
0	1292	71.943428184679	0
0	1294	72.223232147586	1
0	1296	72.322398814253	0
0	1298	72.37218518555	1
0	1300	72.471351852217	0
0	1302	72.555346937174	1
0	1304	72.583603733643	2
0	1307	72.68277040031	0
0	1309	72.773433967036	1
0	1311	72.872600633703	0
0	1313	72.968365623673	1
0	1315	73.033012743486	2
0	1318	73.125353985948	2
0	1321	73.135122042057	2
0	1324	73.234288708724	0
0	1326	73.367462489455	1
0	1328	73.458665744346	2
0	1331	73.557832411013	0
0	1333	73.847925598218	1
0	1335	73.876142755115	2
0	1337	73.921499660514	2
0	1341	74.020666327181	0
0	1343	74.449379956538	1
0	1345	74.477075896258	2
0	1348	74.576242562925	0
0	1350	74.854936896095	1
0	1352	74.954103562762	0
0	1354	75.156247340092	1
0	1356	75.255414006759	0
0	1358	75.374594739968	1
0	1360	75.473761406635	0
0	1362	75.521493239674	1
0	1364	75.620659906341	0
0	1366	75.752228914504	1
0	1368	75.794571330941	2
0	1371	75.885593085815	2
0	1374	75.945815315702	2
0	1376	75.951916951591	2
0	1380	76.051083618258	0
0	1382	76.065599534716	1
0	1384	76.161259851215	2
0	1387	76.165926331842	2
0	1389	76.191361066168	2
0	1393	76.266154328531	2
0	1396	76.335423169435	2
0	1399	76.434589836102	0
0	1401	76.725545312441	1
0	1403	76.824711979108	0
0	1405	77.293407504588	1
0	1407	77.31154829735	2
0	1410	77.410714964017	0
0	1412	77.927155601265	1
0	1414	78.026322267932	0
0	1416	78.072640708587	1
0	1418	78.150020857622	2
0	1421	78.226795105004	2
0	1423	78.246465866999	2
0	1426	78.258534585073	2
0	1428	78.260324662854	2
0	1433	78.359491329521	0
0	1435	78.680026870214	1
0	1437	78.779193536881	0
0	1439	79.005208948207	1
0	1441	79.104375614874	0
0	1443	79.66727459438	1
0	1445	79.766441261047	0
0	1447	79.966207082624	1
0	1449	80.065373749291	0
0	1451	80.295306598879	1
0	1453	80.317520285292	2
0	1455	80.321611213306	2
0	1459	80.420777879973	0
0	1461	80.445392483262	1
0	1463	80.47479645284	2
0	1466	80.573963119507	0
0	1468	80.729775846786	1
0	1470	80.787987481579	2
0	1473	80.887154148246	0
0	1475	80.99384489473	1
0	1477	81.093011561397	0
0	1479	81.178993061056	1
0	1481	81.278159727723	0
0	1483	81.328780908904	1
0	1485	81.427947575571	0
0	1487	81.578875382771	1
0	1489	81.678042049438	0
0	1491	81.715043362023	1
0	1493	81.81421002869	0
0	1495	82.068137109217	1
0	1497	82.167303775884	0
0	1499	82.433179033908	1
0	1501	82.457904865085	2
0	1503	82.528889204855	2
0	1506	82.554480725285	2
0	1510	82.653647391952	0
0	1512	82.858287611208	1
0	1514	82.881321152676	2
0	1517	82.980487819343	0
0	1519	83.499468279426	1
0	1521	83.598634946093	0
0	1523	83.903433825183	1
0	1525	84.00260049185	0
0	1527	84.146444964523	1
0	1529	84.24561163119	0
0	1531	84.55627309244	1
0	1533	84.655439759107	0
0	1535	84.743153468972	1
0	1537	84.842320135639	0
0	1539	84.988017065159	1
0	1541	85.087183731826	0
0	1543	85.2183961872	1
0	1545	85.30288483926	2
0	1548	85.343561800352	2
0	1551	85.442728467019	0
0	1553	85.79265208767	1
0	1555	85.853154056325	2
0	1558	85.912580541246	2
0	1561	86.011747207913	0
0	1563	86.078926669525	1
0	1565	86.178093336192	0
0	1567	86.318412842029	1
0	1569	86.417579508696	0
0	1571	86.432772004992	1
0	1573	86.514708204943	2
0	1576	86.611026643597	2
0	1579	86.680635283408	2
0	1582	86.779801950075	0
0	1584	86.810577241656	1
0	1586	86.862063020338	2
0	1589	86.924923881612	2
0	1592	87.024090548279	0
0	1594	87.153647766294	1
0	1596	87.235762471521	2
0	1599	87.334929138188	0
0	1601	87.476324576839	1
0	1603	87.575491243506	0
0	1605	87.628901664273	1
0	1607	87.72806833094	0
0	1609	88.55717520008	1
0	1611	88.656341866747	0
0	1613	88.740922610128	1
0	1615	88.833268872607	2
0	1618	88.921844655904	2
0	1621	89.021011322571	0
0	1623	89.258657122784	1
0	1625	89.357823789451	0
0	1627	89.378957468063	1
0	1629	89.47812413473	0
0	1631	90.011095999069	1
0	1633	90.110262665736	0
0	1635	90.132473339616	1
0	1637	90.231640006283	0
0	1639	90.306603538142	1
0	1641	90.405770204809	0
0	1643	90.601704382812	1
0	1645	90.700871049479	0
0	1647	90.739170467704	1
0	1649	90.838337134371	0
0	1651	91.110204878605	1
0	1653	91.209371545272	0
0	1655	91.30589221076	1
0	1657	91.345680223209	2
0	1660	91.444846889876	0
0	1662	91.474397079639	1
0	1664	91.478784629837	2
0	1667	91.577951296504	0
0	1669	91.602183722347	1
0	1671	91.701350389014	0
0	1673	91.921183093094	1
0	1675	92.020349759761	0
0	1677	92.064836614638	1
0	1679	92.127042699065	2
0	1682	92.168282150342	2
0	1685	92.267448817009	0
0	1687	92.656066854376	1
0	1689	92.720507983628	2
0	1692	92.819674650295	0
0	1694	93.136564454497	1
0	1696	93.214621408409	2
0	1699	93.313788075076	0
0	1701	93.320309979421	1
0	1703	93.419476646088	0
0	1705	93.437931063382	1
0	1707	93.537097730049	0
0	1709	93.977570190088	1
0	1711	94.076736856755	0
0	1713	94.316607776262	1
0	1715	94.415774442929	0
0	1717	94.440862966817	1
0	1719	94.540029633484	0
0	1721	95.189217809683	1
0	1723	95.28838447635	0
0	1725	95.329700805795	1
0	1727	95.349353374925	2
0	1729	95.399205265725	2
0	1733	95.498371932392	0
0	1735	95.512398048535	1
0	1737	95.611564715202	0
0	1739	95.638842235376	1
0	1741	95.738008902043	0
0	1743	96.102025637287	1
0	1745	96.154756256713	2
0	1748	96.25392292338	0
0	1750	96.483382243426	1
0	1752	96.52637463731	2
0	1754	96.575919729849	2
0	1758	96.675086396516	0
0	1760	96.955563647005	1
0	1762	97.054730313672	0
0	1764	97.187830242789	1
0	1766	97.284622245177	2
0	1769	97.304895132135	2
0	1772	97.404061798802	0
0	1774	97.46622434374	1
0	1776	97.478595350977	2
0	1779	97.577762017644	0
0	1781	97.710675506475	1
0	1783	97.767243596499	2
0	1786	97.866410263166	0
0	1788	98.025511907911	1
0	1790	98.026550360717	2
0	1793	98.125717027384	0
0	1795	98.475022733223	1
0	1797	98.57418939989	0
0	1799	98.602094521266	1
0	1801	98.701261187933	0
0	1803	99.184001076908	1
0	1805	99.283167743575	0
0	1807	99.301466993815	1
0	1809	99.322164570563	2
0	1811	99.399224774923	2
0	1815	99.477339417643	2
0	1818	99.57650608431	0
0	1820	99.685426160714	1
0	1822	99.784592827381	0
0	1824	100.135768559993	1
0	1826	100.23493522666	0
0	1828	100.237081512552	1
0	1830	100.324257217421	2
0	1833	100.423423884088	0
0	1835	100.451341330285	1
0	1837	100.454601300199	2
0	1839	100.473142549887	2
0	1841	100.489028264945	2
0	1846	100.588194931612	0
0	1848	100.661974619977	1
0	1850	100.761141286644	0
0	1852	101.308688026592	1
0	1854	101.407854693259	0
0	1856	101.440440544986	1
0	1858	101.539607211653	0
0	1860	101.657414028919	1
0	1862	101.711135223744	2
0	1865	101.810301890411	0
0	1867	101.826096343236	1
0	1869	101.925263009903	0
0	1871	102.012073399151	1
0	1873	102.028191869911	2
0	1876	102.127358536578	0
0	1878	102.561481675129	1
0	1880	102.626345990361	2
0	1883	102.711010472669	2
0	1886	102.727695566717	2
0	1888	102.756780168387	2
0	1892	102.855946835054	0
0	1894	103.411484687282	1
0	1896	103.510651353949	0
0	1898	103.872262538314	1
0	1900	103.971429204981	0
0	1902	104.406562395395	1
0	1904	104.423418907779	2
0	1907	104.522585574446	0
0	1909	104.685869934319	1
0	1911	104.785036600986	0
0	1913	104.875241289683	1
0	1915	104.97440795635	0
0	1917	105.14590088465	1
0	1919	105.245067551317	0
0	1921	105.980830238033	1
0	1923	106.0799969047	0
0	1925	106.112907598252	1
0	1927	106.212074264919	0
0	1929	106.218079263155	1
0	1931	106.317245929822	0
0	1933	106.339224363038	1
0	1935	106.40346721994	2
0	1938	106.453847357256	2
0	1941	106.509089327418	2
0	1944	106.608255994085	0
0	1946	106.612667004315	1
0	1948	106.616044295327	2
0	1950	106.655911989103	2
0	1954	106.75507865577	0
0	1956	106.77184676009	1
0	1958	106.871013426757	0
0	1960	106.927652364516	1
0	1962	107.026819031183	0
0	1964	107.031492332898	1
0	1966	107.130658999565	0
0	1968	107.131513808658	1
0	1970	107.176103838709	2
0	1973	107.246117190954	2
0	1976	107.287560439452	2
0	1978	107.320570019708	2
0	1982	107.419736686375	0
0	1984	107.552586784448	1
0	1986	107.628024536963	2
0	1989	107.72719120363	0
0	1991	107.863404124853	1
0	1993	107.96257079152	0
0	1995	108.352272762775	1
0	1997	108.41045669703	2
0	2000	108.509623363697	0
0	2002	108.573204509177	1
0	2004	108.672371175844	0
0	2006	108.917326493687	1
0	2008	108.986761881191	2
0	2011	109.058414177124	2
0	2014	109.156507208403	2
0	2017	109.25567387507	0
0	2019	109.575688555606	1
0	2021	109.656533731426	2
0	2024	109.714490613574	2
0	2027	109.813657280241	0
0	2029	110.267034025706	1
0	2031	110.355519878912	2
0	2034	110.454686545579	0
0	2036	110.835080222339	1
0	2038	110.934246889006	0
0	2040	111.418430879686	1
0	2042	111.517597546353	0
0	2044	111.716042768861	1
0	2046	111.756594588213	2
0	2049	111.85576125488	0
0	2051	112.114532803641	1
0	2053	112.195905406643	2
0	2056	112.29507207331	0
0	2058	112.658642173241	1
0	2060	112.757808839908	0
0	2062	112.823827370818	1
0	2064	112.922994037485	0
0	2066	113.195982096192	1
0	2068	113.295148762859	0
0	2070	113.711697269572	1
0	2072	113.758306342494	2
0	2075	113.857473009161	0
0	2077	114.284446707336	1
0	2079	114.302843210734	2
0	2082	114.402009877401	0
0	2084	114.488818224597	1
0	2086	114.587984891264	0
0	2088	114.827809180966	1
0	2090	114.926975847633	0
0	2092	115.126553003598	1
0	2094	115.171919909723	2
0	2097	115.266071145914	2
0	2100	115.272083938042	2
0	2102	115.275771309402	2
0	2106	115.374937976069	0
0	2108	115.421203182637	1
0	2110	115.520369849304	0
0	2112	115.629327941866	1
0	2114	115.72070492913	2
0	2117	115.819871595797	0
0	2119	115.835565689135	1
0	2121	115.934732355802	0
0	2123	116.200007648804	1
0	2125	116.299174315471	0
0	2127	116.330729361844	1
0	2129	116.360308994369	2
0	2131	116.38909218209	2
0	2135	116.488258848757	0
0	2137	116.567779988337	1
0	2139	116.666946655004	0
0	2141	116.877756906728	1
0	2143	116.976923573395	0
0	2145	117.079000119496	1
0	2147	117.080300661957	2
0	2149	117.081401184042	2
0	2153	117.180567850709	0
0	2155	117.274471774579	1
0	2157	117.319728009045	2
0	2160	117.394538369541	2
0	2163	117.493705036208	0
0	2165	117.598721249193	1
0	2167	117.69788791586	0
0	2169	118.313213050704	1
0	2171	118.412379717371	0
0	2173	118.633459202216	1
0	2175	118.732625868883	0
0	2177	118.918375765549	1
0	2179	119.017542432216	0
0	2181	119.253457135602	1
0	2183	119.352623802269	0
0	2185	119.470476448484	1
0	2187	119.569643115151	0
0	2189	119.570470838565	1
0	2191	119.669637505232	0
0	2193	119.743105561719	1
0	2195	119.842272228386	0
0	2197	120.081770119092	1
0	2199	120.180936785759	0
0	2201	120.421811751435	1
0	2203	120.504737845968	2
0	2206	120.603904512635	0
0	2208	121.036751246261	1
0	2210	121.039163142819	2
0	2213	121.138329809486	0
0	2215	121.159911231985	1
0	2217	121.259077898652	0
0	2219	121.391383124316	1
0	2221	121.490549790983	0
0	2223	121.512107831941	1
0	2225	121.611274498608	0
0	2227	121.884894281199	1
0	2229	121.984060947866	0
0	2231	122.62864776909	1
0	2233	122.727814435757	0
0	2235	122.924949840814	1
0	2237	123.024116507481	0
0	2239	123.480186644435	1
0	2241	123.579353311102	0
0	2243	123.59146979207	1
0	2245	123.690636458737	0
0	2247	123.70313244574	1
0	2249	123.802299112407	0
0	2251	123.912197701867	1
0	2253	124.011364368534	0
0	2255	124.260532657167	1
0	2257	124.29354219661	2
0	2260	124.392708863277	0
0	2262	124.540913721985	1
0	2264	124.611092767549	2
0	2267	124.710259434216	0
0	2269	125.167796844654	1
0	2271	125.266963511321	0
0	2273	125.430134939137	1
0	2275	125.529301605804	0
0	2277	125.882518780602	1
0	2279	125.981685447269	0
0	2281	126.070733980216	1
0	2283	126.169900646883	0
0	2285	126.189599666026	1
0	2287	126.244949491901	2
0	2289	126.25713600455	2
0	2293	126.356302671217	0
0	2295	126.413049149609	1
0	2297	126.512215816276	0
0	2299	126.718947567469	1
0	2301	126.80079073256	2
0	2304	126.87298147309	2
0	2307	126.972148139757	0
0	2309	127.130013051761	1
0	2311	127.229179718428	0
0	2313	127.236113436459	1
0	2315	127.305355435893	2
0	2317	127.307979415849	2
0	2321	127.407146082516	0
0	2323	127.504480180328	1
0	2325	127.603646846995	0
0	2327	127.6503572358	1
0	2329	127.749523902467	0
0	2331	127.875762337523	1
0	2333	127.97492900419	0
0	2335	128.005535054236	1
0	2337	128.021346990153	2
0	2340	128.12051365682	0
0	2342	128.165474033042	1
0	2344	128.264640699709	0
0	2346	128.33509824001	1
0	2348	128.352703958199	2
0	2350	128.362305099372	2
0	2354	128.461471766039	0
0	2356	128.46972302501	1
0	2358	128.568889691677	0
0	2360	128.79013955059	1
0	2362	128.889306217257	0
0	2364	129.338531462086	1
0	2366	129.384065198805	2
0	2369	129.483231865472	0
0	2371	130.101720430106	1
0	2373	130.136204537494	2
0	2375	130.175599597825	2
0	2379	130.274766264492	0
0	2381	130.387570451116	1
0	2383	130.486737117783	0
0	2385	130.517588175963	1
0	2387	130.61675484263	0
0	2389	130.79241977338	1
0	2391	130.889485711949	2
0	2394	130.988652378616	0
0	2396	131.185023774974	1
0	2398	131.200962964849	2
0	2401	131.296990076743	2
0	2404	131.39615674341	0