version 3
run PureAlohaExperiment-11-20260306-12:10:17-8840
attr configname PureAlohaExperiment
attr datetime 20260306-12:10:17
attr datetimef 20260306-121017
attr experiment PureAlohaExperiment
attr inifile omnetpp.ini
attr iterationvars "$numHosts=10, $iaMean=7"
attr iterationvarsd numHosts=10/iaMean=7
attr iterationvarsf numHosts=10,iaMean=7-
attr measurement "$numHosts=10, $iaMean=7"
attr network Aloha
attr processid 8840
attr repetition 1
attr replication #1
attr resultdir results
attr runnumber 11
attr seedset 11
itervar iaMean 7
itervar numHosts 10
config description "Channel utilization in the function of packet generation frequency"
config repeat 2
config sim-time-limit 90min
config Aloha.numHosts 10
config Aloha.host[*].iaTime exponential(7s)
config network Aloha
config Aloha.numHosts 20
config Aloha.slotTime 0s
config Aloha.txRate 9.6kbps
config Aloha.host[*].pkLenBits 952b
config **.x "uniform(0m, 1000m)"
config **.y "uniform(0m, 1000m)"
config **.animationHoldTimeOnCollision 0s
config **.idleAnimationSpeed 1
config **.transmissionEdgeAnimationSpeed 1e-6
config **.midTransmissionAnimationSpeed 1e-1

vector 0 Aloha.server serverChannelState:vector ETV
attr enum IDLE=0,TRANSMISSION=1,COLLISION=2
attr recordingmode vector
attr source channelState
attr title "Channel state"
vector 1 Aloha.host[0] radioState:vector ETV
attr enum IDLE=0,TRANSMIT=1
attr recordingmode vector
attr source state
attr title "Radio state"
vector 2 Aloha.host[1] radioState:vector ETV
attr enum IDLE=0,TRANSMIT=1
attr recordingmode vector
attr source state
attr title "Radio state"
vector 3 Aloha.host[2] radioState:vector ETV
attr enum IDLE=0,TRANSMIT=1
attr recordingmode vector
attr source state
attr title "Radio state"
vector 4 Aloha.host[3] radioState:vector ETV
attr enum IDLE=0,TRANSMIT=1
attr recordingmode vector
attr source state
attr title "Radio state"
vector 5 Aloha.host[4] radioState:vector ETV
attr enum IDLE=0,TRANSMIT=1
attr recordingmode vector
attr source state
attr title "Radio state"
vector 6 Aloha.host[5] radioState:vector ETV
attr enum IDLE=0,TRANSMIT=1
attr recordingmode vector
attr source state
attr title "Radio state"
vector 7 Aloha.host[6] radioState:vector ETV
attr enum IDLE=0,TRANSMIT=1
attr recordingmode vector
attr source state
attr title "Radio state"
vector 8 Aloha.host[7] radioState:vector ETV
attr enum IDLE=0,TRANSMIT=1
attr recordingmode vector
attr source state
attr title "Radio state"
vector 9 Aloha.host[8] radioState:vector ETV
attr enum IDLE=0,TRANSMIT=1
attr recordingmode vector
attr source state
attr title "Radio state"
vector 10 Aloha.host[9] radioState:vector ETV
attr enum IDLE=0,TRANSMIT=1
attr recordingmode vector
attr source state
attr title "Radio state"
vector 11 Aloha.server channelUtilizationVector:vector ETV
attr interpolationmode linear
attr recordingmode vector
attr source timeavg(receive)
attr title "channel utilization evolution"
0	0	0	0
0	2	0.805804810267	1
0	4	0.904971476934	0
0	6	1.049845646137	1
0	8	1.149012312804	0
0	10	1.262993772787	1
0	12	1.362160439454	0
0	14	2.231088438113	1
0	16	2.33025510478	0
0	18	5.107205711826	1
0	20	5.206372378493	0
0	22	6.201451321674	1
0	24	6.300617988341	0
0	26	7.00406635581	1
0	28	7.103233022477	0
0	30	7.814092313644	1
0	32	7.868713921517	2
0	35	7.967880588184	0
0	37	8.091555406703	1
0	39	8.19072207337	0
0	41	8.306330905003	1
0	43	8.40549757167	0
0	45	9.344853298855	1
0	47	9.444019965522	0
0	49	10.772488913862	1
0	51	10.871655580529	0
0	53	13.14828120568	1
0	55	13.247447872347	0
0	57	13.621930342579	1
0	59	13.721097009246	0
0	61	13.829484012188	1
0	63	13.928650678855	0
0	65	14.719926355053	1
0	67	14.81909302172	0
0	69	15.525825810189	1
0	71	15.624992476856	0
0	73	15.647907782017	1
0	75	15.703890932979	2
0	78	15.803057599646	0
0	80	16.360888822153	1
0	82	16.408380001385	2
0	85	16.507546668052	0
0	87	16.839418057351	1
0	89	16.938584724018	0
0	91	16.983188457627	1
0	93	17.082355124294	0
0	95	17.927996153472	1
0	97	18.027162820139	0
0	99	18.428147261914	1
0	101	18.527313928581	0
0	103	20.342336303868	1
0	105	20.441502970535	0
0	107	21.701780536193	1
0	109	21.80094720286	0
0	111	22.122557184538	1
0	113	22.221723851205	0
0	115	23.344633804402	1
0	117	23.443800471069	0
0	119	25.016259893989	1
0	121	25.115426560656	0
0	123	25.191285604031	1
0	125	25.290452270698	0
0	127	25.711502000623	1
0	129	25.81066866729	0
0	131	25.817089553811	1
0	133	25.916256220478	0
0	135	25.983615639688	1
0	137	26.082782306355	0
0	139	26.943862964758	1
0	141	27.043029631425	0
0	143	27.544199448079	1
0	145	27.643366114746	0
0	147	29.232300918682	1
0	149	29.331467585349	0
0	151	29.380156277304	1
0	153	29.479322943971	0
0	155	29.590913355558	1
0	157	29.690080022225	0
0	159	30.240547298439	1
0	161	30.339713965106	0
0	163	32.533031907065	1
0	165	32.632198573732	0
0	167	33.27010026155	1
0	169	33.369266928217	0
0	171	33.636433549161	1
0	173	33.735600215828	0
0	175	34.067270049705	1
0	177	34.166436716372	0
0	179	34.274036179732	1
0	181	34.373202846399	0
0	183	34.667863304499	1
0	185	34.767029971166	0
0	187	36.086340447401	1
0	189	36.185507114068	0
0	191	36.257266538471	1
0	193	36.356433205138	0
0	195	36.817067177077	1
0	197	36.916233843744	0
0	199	37.223922914298	1
0	201	37.323089580965	0
0	203	38.273149162894	1
0	205	38.301582896742	2
0	208	38.382877873438	2
0	211	38.482044540105	0
0	213	38.90891603181	1
0	215	39.008082698477	0
0	217	39.740656186007	1
0	219	39.839822852674	0
0	221	39.901042776784	1
0	223	40.000209443451	0
0	225	40.103319645594	1
0	227	40.202486312261	0
0	229	40.24461059062	1
0	231	40.343777257287	0
0	233	40.497765854796	1
0	235	40.511084665149	2
0	237	40.584371814195	2
0	241	40.683538480862	0
0	243	41.701214228283	1
0	245	41.80038089495	0
0	247	41.872649170478	1
0	249	41.971815837145	0
0	251	42.743809406709	1
0	253	42.842976073376	0
0	255	43.011946106546	1
0	257	43.111112773213	0
0	259	45.909445200073	1
0	261	46.00861186674	0
0	263	47.550518047526	1
0	265	47.649684714193	0
0	267	48.60577184692	1
0	269	48.704938513587	0
0	271	50.324899224724	1
0	273	50.424065891391	0
0	275	50.788134157533	1
0	277	50.8873008242	0
0	279	51.538157110763	1
0	281	51.63732377743	0
0	283	51.784469636827	1
0	285	51.883636303494	0
0	287	53.177975865503	1
0	289	53.27714253217	0
0	291	53.855439709884	1
0	293	53.954606376551	0
0	295	54.027555583267	1
0	297	54.126722249934	0
0	299	55.405062748286	1
0	301	55.415566539401	2
0	304	55.514733206068	0
0	306	57.966504452012	1
0	308	58.065671118679	0
0	310	58.30708870847	1
0	312	58.406255375137	0
0	314	58.520335599296	1
0	316	58.619502265963	0
0	318	58.622270426504	1
0	320	58.721437093171	0
0	322	58.766158767425	1
0	324	58.865325434092	0
0	326	59.792158814726	1
0	328	59.891325481393	0
0	330	60.565628394035	1
0	332	60.664795060702	0
0	334	61.172795256967	1
0	336	61.271961923634	0
0	338	61.422132840409	1
0	340	61.521299507076	0
0	342	62.964711594299	1
0	344	63.063878260966	0
0	346	63.161039779323	1
0	348	63.180311392686	2
0	351	63.279478059353	0
0	353	64.743197929391	1
0	355	64.842364596058	0
0	357	66.132522976032	1
0	359	66.231689642699	0
0	361	69.169757289512	1
0	363	69.268923956179	0
0	365	69.976328366578	1
0	367	70.075495033245	0
0	369	70.783168538184	1
0	371	70.882335204851	0
0	373	71.1085804821	1
0	375	71.207747148767	0
0	377	72.547613056115	1
0	379	72.646779722782	0
0	381	72.848536037266	1
0	383	72.947702703933	0
0	385	73.083177894296	1
0	387	73.182344560963	0
0	389	73.989280583674	1
0	391	74.088447250341	0
0	393	74.156267817967	1
0	395	74.255434484634	0
0	397	74.463320451026	1
0	399	74.48020109605	2
0	402	74.579367762717	0
0	404	79.000407416187	1
0	406	79.099574082854	0
0	408	79.386736313893	1
0	410	79.48590298056	0
0	412	80.57425256137	1
0	414	80.673419228037	0
0	416	81.656680477306	1
0	418	81.755847143973	0
0	420	81.926871285313	1
0	422	82.02603795198	0
0	424	82.485407003486	1
0	426	82.584573670153	0
0	428	83.304390646286	1
0	430	83.403557312953	0
0	432	83.753846119113	1
0	434	83.85301278578	0
0	436	84.146540680412	1
0	438	84.190861093928	2
0	441	84.290027760595	0
0	443	85.428513161202	1
0	445	85.527679827869	0
0	447	85.746778295731	1
0	449	85.845944962398	0
0	451	86.240187793101	1
0	453	86.30586875554	2
0	456	86.405035422207	0
0	458	86.680661473476	1
0	460	86.779828140143	0
0	462	87.047101123557	1
0	464	87.146267790224	0
0	466	87.776581749097	1
0	468	87.875748415764	0
0	470	88.532729780015	1
0	472	88.631896446682	0
0	474	88.695032714204	1
0	476	88.794199380871	0
0	478	90.332571339272	1
0	480	90.431738005939	0
0	482	90.97748388533	1
0	484	91.076650551997	0
0	486	91.196182392942	1
0	488	91.295349059609	0
0	490	91.432079318036	1
0	492	91.531245984703	0
0	494	91.896505779437	1
0	496	91.995672446104	0
0	498	92.583352393924	1
0	500	92.682519060591	0
0	502	92.965194744164	1
0	504	93.025648804495	2
0	507	93.124815471162	0
0	509	93.235640832165	1
0	511	93.334807498832	0
0	513	93.379734743536	1
0	515	93.478901410203	0
0	517	94.104596313366	1
0	519	94.203762980033	0
0	521	96.576795132323	1
0	523	96.67596179899	0
0	525	97.284425484249	1
0	527	97.383592150916	0
0	529	97.393118977979	1
0	531	97.492285644646	0
0	533	99.296475166392	1
0	535	99.395641833059	0
0	537	100.160296750426	1
0	539	100.259463417093	0
0	541	101.017999695847	1
0	543	101.117166362514	0
0	545	101.180569950842	1
0	547	101.279736617509	0
0	549	101.975270432769	1
0	551	102.074437099436	0
0	553	102.249744476545	1
0	555	102.348911143212	0
0	557	102.413287417484	1
0	559	102.512454084151	0
0	561	102.603469108428	1
0	563	102.702635775095	0
0	565	103.631973331335	1
0	567	103.731139998002	0
0	569	103.854397384939	1
0	571	103.945017099409	2
0	574	104.044183766076	0
0	576	104.125171828588	1
0	578	104.224338495255	0
0	580	105.236855690788	1
0	582	105.336022357455	0
0	584	105.394140848059	1
0	586	105.493307514726	0
0	588	107.579862616771	1
0	590	107.679029283438	0
0	592	111.78963405106	1
0	594	111.888800717727	0
0	596	112.287229519668	1
0	598	112.386396186335	0
0	600	112.646013614171	1
0	602	112.745180280838	0
0	604	113.006560118318	1
0	606	113.105726784985	0
0	608	113.129256510606	1
0	610	113.228423177273	0
0	612	113.887574314794	1
0	614	113.986740981461	0
0	616	114.274922903215	1
0	618	114.374089569882	0
0	620	114.637450990934	1
0	622	114.736617657601	0
0	624	115.042352567681	1
0	626	115.141519234348	0
0	628	116.015646315218	1
0	630	116.114812981885	0
0	632	116.832871555771	1
0	634	116.932038222438	0
0	636	116.959366611256	1
0	638	117.058533277923	0
0	640	117.725874987264	1
0	642	117.825041653931	0
0	644	118.062174483362	1
0	646	118.161341150029	0
0	648	118.2665311379	1
0	650	118.365697804567	0
0	652	118.616790173736	1
0	654	118.715956840403	0
0	656	118.769883523662	1
0	658	118.802830176634	2
0	661	118.901996843301	0
0	663	119.321942541957	1
0	665	119.421109208624	0
0	667	119.468808639169	1
0	669	119.567975305836	0
0	671	121.289309279615	1
0	673	121.388475946282	0
0	675	121.45875055515	1
0	677	121.487692622388	2
0	680	121.58299785307	2
0	683	121.682164519737	0
0	685	122.938536443345	1
0	687	123.037703110012	0
0	689	123.321764594391	1
0	691	123.420931261058	0
0	693	124.200569505041	1
0	695	124.299736171708	0
0	697	124.714825169478	1
0	699	124.813991836145	0
0	701	125.485056503433	1
0	703	125.5842231701	0
0	705	125.686138197068	1
0	707	125.785304863735	0
0	709	126.831575708561	1
0	711	126.930742375228	0
0	713	127.457454365815	1
0	715	127.556621032482	0
0	717	127.56873230152	1
0	719	127.667898968187	0
0	721	128.183757015445	1
0	723	128.282923682112	0
0	725	128.291828028585	1
0	727	128.390994695252	0
0	729	128.926120286326	1
0	731	129.025286952993	0
0	733	129.475944195849	1
0	735	129.575110862516	0
0	737	129.961059904791	1
0	739	130.060226571458	0
0	741	130.108515402354	1
0	743	130.207682069021	0
0	745	130.428944405312	1
0	747	130.528111071979	0
0	749	131.231026616773	1
0	751	131.33019328344	0
0	753	132.144841323841	1
0	755	132.244007990508	0
0	757	134.178663770198	1
0	759	134.277830436865	0
0	761	134.440308044727	1
0	763	134.539474711394	0
0	765	134.605452574245	1
0	767	134.704619240912	0
0	769	135.844007394603	1
0	771	135.94317406127	0
0	773	136.51973470786	1
0	775	136.618901374527	0
0	777	136.825952767509	1
0	779	136.925119434176	0
0	781	137.39811408707	1
0	783	137.497280753737	0
0	785	137.673555848452	1
0	787	137.688651748471	2
0	790	137.787818415138	0
0	792	138.705688346072	1
0	794	138.804855012739	0
0	796	140.036262426262	1
0	798	140.135429092929	0
0	800	142.023708331175	1
0	802	142.122874997842	0
0	804	142.846371097227	1
0	806	142.945537763894	0
0	808	143.113114659785	1
0	810	143.212281326452	0
0	812	145.570825500463	1
0	814	145.66999216713	0
0	816	145.881908433727	1
0	818	145.981075100394	0
0	820	146.155261956972	1
0	822	146.254428623639	0
0	824	146.402159134727	1
0	826	146.501325801394	0
0	828	147.246169116816	1
0	830	147.345335783483	0
0	832	148.681551182468	1
0	834	148.780717849135	0
0	836	149.1520424829	1
0	838	149.251209149567	0
0	840	150.770407089215	1
0	842	150.869573755882	0
0	844	151.104403825213	1
0	846	151.20357049188	0
0	848	152.765413010422	1
0	850	152.864579677089	0
0	852	152.942271846894	1
0	854	153.041438513561	0
0	856	154.213400254688	1
0	858	154.312566921355	0
0	860	155.599297269623	1
0	862	155.636900595429	2
0	865	155.736067262096	0
0	867	155.74826291906	1
0	869	155.847429585727	0
0	871	157.681646356319	1
0	873	157.780813022986	0
0	875	157.789948517045	1
0	877	157.889115183712	0
0	879	159.892616508445	1
0	881	159.991783175112	0
0	883	161.396782935294	1
0	885	161.495949601961	0
0	887	161.63581229691	1
0	889	161.724897579286	2
0	892	161.824064245953	0
0	894	163.380321301925	1
0	896	163.479487968592	0
0	898	164.11086353657	1
0	900	164.208873555764	2
0	903	164.308040222431	0
0	905	164.399174379801	1
0	907	164.498341046468	0
0	909	165.259165220942	1
0	911	165.358331887609	0
0	913	167.274319988921	1
0	915	167.373486655588	0
0	917	167.406888577565	1
0	919	167.506055244232	0
0	921	168.138308660383	1
0	923	168.23747532705	0
0	925	169.232774543808	1
0	927	169.331941210475	0
0	929	170.700717916775	1
0	931	170.799884583442	0
0	933	171.050067316505	1
0	935	171.116362485105	2
0	938	171.215529151772	0
0	940	173.233938057793	1
0	942	173.29841912491	2
0	945	173.397585791577	0
0	947	173.784104397384	1
0	949	173.883271064051	0
0	951	175.789112244357	1
0	953	175.888278911024	0
0	955	176.337610346487	1
0	957	176.436777013154	0
0	959	177.118443577931	1
0	961	177.217610244598	0
0	963	177.329591106213	1
0	965	177.42875777288	0
0	967	177.75816586913	1
0	969	177.857332535797	0
0	971	178.834965617625	1
0	973	178.934132284292	0
0	975	180.254585021232	1
0	977	180.353751687899	0
0	979	180.595430557986	1
0	981	180.694597224653	0
0	983	182.58317313952	1
0	985	182.682339806187	0
0	987	183.89260854592	1
0	989	183.991775212587	0
0	991	184.817419061107	1
0	993	184.916585727774	0
0	995	185.019583624744	1
0	997	185.118750291411	0
0	999	185.26962673257	1
0	1001	185.368793399237	0
0	1003	185.860427602311	1
0	1005	185.958807290218	2
0	1008	186.057973956885	0
0	1010	186.328621251178	1
0	1012	186.427787917845	0
0	1014	186.930479734712	1
0	1016	187.029646401379	0
0	1018	187.030852272977	1
0	1020	187.130018939644	0
0	1022	187.666408204614	1
0	1024	187.765574871281	0
0	1026	188.573956670562	1
0	1028	188.673123337229	0
0	1030	189.410002993902	1
0	1032	189.509169660569	0
0	1034	189.700327477669	1
0	1036	189.799494144336	0
0	1038	189.845740713701	1
0	1040	189.944907380368	0
0	1042	190.895411413385	1
0	1044	190.994578080052	0
0	1046	191.588556589665	1
0	1048	191.687723256332	0
0	1050	191.773253145275	1
0	1052	191.872419811942	0
0	1054	192.024939521154	1
0	1056	192.059096033912	2
0	1059	192.158262700579	0
0	1061	192.382098889676	1
0	1063	192.481265556343	0
0	1065	194.696601455451	1
0	1067	194.795768122118	0
0	1069	195.093728492594	1
0	1071	195.192895159261	0
0	1073	195.605111084163	1
0	1075	195.697642206369	2
0	1078	195.796808873036	0
0	1080	196.032966679895	1
0	1082	196.132133346562	0
0	1084	197.895639376746	1
0	1086	197.994806043413	0
0	1088	198.246731355121	1
0	1090	198.345898021788	0
0	1092	199.527646200335	1
0	1094	199.626812867002	0
0	1096	199.954354893537	1
0	1098	200.053521560204	0
0	1100	201.691142843336	1
0	1102	201.783046266262	2
0	1105	201.882212932929	0
0	1107	202.262909898253	1
0	1109	202.36207656492	0
0	1111	203.290286033165	1
0	1113	203.389452699832	0
0	1115	203.970680726656	1
0	1117	204.069847393323	0
0	1119	204.798273067198	1
0	1121	204.897439733865	0
0	1123	205.245262813559	1
0	1125	205.344429480226	0
0	1127	207.36331451544	1
0	1129	207.462481182107	0
0	1131	207.608049219051	1
0	1133	207.676751732154	2
0	1136	207.775918398821	0
0	1138	207.795267794903	1
0	1140	207.859102109481	2
0	1143	207.958268776148	0
0	1145	208.119106617354	1
0	1147	208.218273284021	0
0	1149	209.201755041806	1
0	1151	209.300921708473	0
0	1153	209.570020985463	1
0	1155	209.66918765213	0
0	1157	209.762966863908	1
0	1159	209.862133530575	0
0	1161	210.25157577724	1
0	1163	210.350742443907	0
0	1165	210.864401456317	1
0	1167	210.963568122984	0
0	1169	211.294189619775	1
0	1171	211.393356286442	0
0	1173	211.920573153091	1
0	1175	212.019739819758	0
0	1177	212.060342547378	1
0	1179	212.159509214045	0
0	1181	212.171863362278	1
0	1183	212.271030028945	0
0	1185	213.463913124187	1
0	1187	213.563079790854	0
0	1189	213.746655597554	1
0	1191	213.845822264221	0
0	1193	215.813813244573	1
0	1195	215.91297991124	0
0	1197	216.509520511733	1
0	1199	216.6086871784	0
0	1201	218.399878452987	1
0	1203	218.499045119654	0
0	1205	218.670742784167	1
0	1207	218.769909450834	0
0	1209	219.95077053732	1
0	1211	220.049937203987	0
0	1213	220.894163555026	1
0	1215	220.993330221693	0
0	1217	221.37585290302	1
0	1219	221.475019569687	0
0	1221	221.848458543473	1
0	1223	221.94762521014	0
0	1225	222.223258510781	1
0	1227	222.322425177448	0
0	1229	223.321282666309	1
0	1231	223.420449332976	0
0	1233	224.678797212653	1
0	1235	224.77796387932	0
0	1237	226.043759209001	1
0	1239	226.142925875668	0
0	1241	228.610512506397	1
0	1243	228.709679173064	0
0	1245	229.478075540078	1
0	1247	229.577242206745	0
0	1249	229.626759055761	1
0	1251	229.725925722428	0
0	1253	230.714840554886	1
0	1255	230.814007221553	0
0	1257	231.747792129176	1
0	1259	231.846958795843	0
0	1261	232.139495366468	1
0	1263	232.238662033135	0
0	1265	232.53913019835	1
0	1267	232.638296865017	0
0	1269	233.90596258343	1
0	1271	233.944362297893	2
0	1274	234.04352896456	0
0	1276	234.153153343868	1
0	1278	234.224475190478	2
0	1281	234.323641857145	0
0	1283	234.385966780518	1
0	1285	234.485133447185	0
0	1287	234.506885266154	1
0	1289	234.606051932821	0
0	1291	235.05648796514	1
0	1293	235.155654631807	0
0	1295	237.989071808864	1
0	1297	238.088238475531	0
0	1299	238.241200145052	1
0	1301	238.340366811719	0
0	1303	238.563957822743	1
0	1305	238.66312448941	0
0	1307	239.579129164727	1
0	1309	239.678295831394	0
0	1311	239.950601005594	1
0	1313	240.049767672261	0
0	1315	240.580756978519	1
0	1317	240.679923645186	0
0	1319	243.335985999601	1
0	1321	243.435152666268	0
0	1323	244.905714240581	1
0	1325	245.004880907248	0
0	1327	245.779149314081	1
0	1329	245.878315980748	0
0	1331	246.486167074772	1
0	1333	246.585333741439	0
0	1335	246.724704371443	1
0	1337	246.82387103811	0
0	1339	246.913111353696	1
0	1341	247.012278020363	0
0	1343	247.383158257673	1
0	1345	247.48232492434	0
0	1347	247.939607105534	1
0	1349	248.038773772201	0
0	1351	248.264291523746	1
0	1353	248.363458190413	0
0	1355	250.266099970326	1
0	1357	250.365266636993	0
0	1359	250.446446947792	1
0	1361	250.545613614459	0
0	1363	251.587259507364	1
0	1365	251.686426174031	0
0	1367	251.695458152313	1
0	1369	251.79462481898	0
0	1371	251.953286211548	1
0	1373	252.052452878215	0
0	1375	252.470595588731	1
0	1377	252.569762255398	0
0	1379	252.997400313531	1
0	1381	253.096566980198	0
0	1383	253.931544857637	1
0	1385	254.030711524304	0
0	1387	254.469796191367	1
0	1389	254.540085714995	2
0	1392	254.639252381662	0
0	1394	256.437172382031	1
0	1396	256.536339048698	0
0	1398	256.568003285285	1
0	1400	256.65416326583	2
0	1403	256.753329932497	0
0	1405	257.560142163751	1
0	1407	257.659308830418	0
0	1409	258.253981054639	1
0	1411	258.319439816029	2
0	1414	258.418606482696	0
0	1416	258.499609953033	1
0	1418	258.5987766197	0
0	1420	260.931632989142	1
0	1422	261.026979476425	2
0	1425	261.056620161605	2
0	1427	261.082591931969	2
0	1431	261.181758598636	0
0	1433	261.310281697743	1
0	1435	261.323017416702	2
0	1438	261.422184083369	0
0	1440	261.895989513549	1
0	1442	261.995156180216	0
0	1444	262.866089713734	1
0	1446	262.965256380401	0
0	1448	265.027025825699	1
0	1450	265.126192492366	0
0	1452	265.904351359989	1
0	1454	266.003518026656	0
0	1456	266.292876521404	1
0	1458	266.335121531408	2
0	1461	266.434288198075	0
0	1463	266.454096186535	1
0	1465	266.553262853202	0
0	1467	266.854509176418	1
0	1469	266.953675843085	0
0	1471	268.949254665707	1
0	1473	269.048421332374	0
0	1475	269.083350075258	1
0	1477	269.182516741925	0
0	1479	269.791581432349	1
0	1481	269.890748099016	0
0	1483	270.026192558639	1
0	1485	270.125359225306	0
0	1487	270.565843139964	1
0	1489	270.665009806631	0
0	1491	271.464836010996	1
0	1493	271.551912278906	2
0	1496	271.651078945573	0
0	1498	271.756294983712	1
0	1500	271.855461650379	0
0	1502	272.314553431171	1
0	1504	272.413720097838	0
0	1506	273.433231223943	1
0	1508	273.53239789061	0
0	1510	274.155352452089	1
0	1512	274.249797252648	2
0	1515	274.348963919315	0
0	1517	274.807524687027	1
0	1519	274.906691353694	0
0	1521	275.40982040347	1
0	1523	275.508987070137	0
0	1525	275.590431374919	1
0	1527	275.689598041586	0
0	1529	276.0785005283	1
0	1531	276.078969481189	2
0	1534	276.178136147856	0
0	1536	276.232041721858	1
0	1538	276.331208388525	0
0	1540	276.569143089743	1
0	1542	276.596824581093	2
0	1545	276.69599124776	0
0	1547	276.864509150325	1
0	1549	276.963675816992	0
0	1551	277.265082587428	1
0	1553	277.364249254095	0
0	1555	278.157887082969	1
0	1557	278.257053749636	0
0	1559	279.002960078407	1
0	1561	279.102126745074	0
0	1563	281.69046906762	1
0	1565	281.789635734287	0
0	1567	282.050094845882	1
0	1569	282.149261512549	0
0	1571	282.598970699021	1
0	1573	282.698137365688	0
0	1575	283.231301967041	1
0	1577	283.330468633708	0
0	1579	283.857787769024	1
0	1581	283.956954435691	0
0	1583	284.604910178574	1
0	1585	284.704076845241	0
0	1587	285.688234571984	1
0	1589	285.787401238651	0
0	1591	286.431272416992	1
0	1593	286.530439083659	0
0	1595	286.783524871981	1
0	1597	286.882691538648	0
0	1599	287.061388215639	1
0	1601	287.160554882306	0
0	1603	287.212467650334	1
0	1605	287.311634317001	0
0	1607	288.044652860249	1
0	1609	288.143819526916	0
0	1611	288.932513777871	1
0	1613	289.031680444538	0
0	1615	289.268281147117	1
0	1617	289.367447813784	0
0	1619	289.452753474424	1
0	1621	289.551920141091	0
0	1623	290.012468312656	1
0	1625	290.111634979323	0
0	1627	290.168266119572	1
0	1629	290.267432786239	0
0	1631	291.481645013585	1
0	1633	291.580811680252	0
0	1635	292.299654398246	1
0	1637	292.398821064913	0
0	1639	293.036576814463	1
0	1641	293.13574348113	0
0	1643	293.68379457408	1
0	1645	293.782961240747	0
0	1647	293.976789412902	1
0	1649	294.075956079569	0
0	1651	294.874003060599	1
0	1653	294.973169727266	0
0	1655	296.418331241144	1
0	1657	296.517497907811	0
0	1659	296.730712851809	1
0	1661	296.829879518476	0
0	1663	298.341907248337	1
0	1665	298.441073915004	0
0	1667	298.581863222146	1
0	1669	298.681029888813	0
0	1671	298.872114908616	1
0	1673	298.971281575283	0
0	1675	299.283259305023	1
0	1677	299.38242597169	0
0	1679	300.007508452113	1
0	1681	300.10667511878	0
0	1683	300.172617108733	1
0	1685	300.2717837754	0
0	1687	300.660481134956	1
0	1689	300.759647801623	0
0	1691	300.968517713732	1
0	1693	301.067684380399	0
0	1695	301.797905135238	1
0	1697	301.897071801905	0
0	1699	302.06597181661	1
0	1701	302.165138483277	0
0	1703	302.727966265943	1
0	1705	302.794922792051	2
0	1708	302.880136790074	2
0	1711	302.979303456741	0
0	1713	303.266371534443	1
0	1715	303.36553820111	0
0	1717	303.869372793509	1
0	1719	303.968539460176	0
0	1721	304.914088353542	1
0	1723	304.968840230254	2
0	1726	305.068006896921	0
0	1728	305.068496411026	1
0	1730	305.167663077693	0
0	1732	305.399582989568	1
0	1734	305.498749656235	0
0	1736	305.570315104998	1
0	1738	305.669481771665	0
0	1740	307.014097233175	1
0	1742	307.113263899842	0
0	1744	310.66190800052	1
0	1746	310.761074667187	0
0	1748	311.097294158714	1
0	1750	311.196460825381	0
0	1752	312.585190751786	1
0	1754	312.684357418453	0
0	1756	312.82559851501	1
0	1758	312.924765181677	0
0	1760	314.579466002776	1
0	1762	314.678632669443	0
0	1764	315.428103676059	1
0	1766	315.456266795889	2
0	1769	315.555433462556	0
0	1771	317.079788401586	1
0	1773	317.178955068253	0
0	1775	317.361376905314	1
0	1777	317.460543571981	0
0	1779	318.98801393372	1
0	1781	319.087180600387	0
0	1783	319.402502025565	1
0	1785	319.501668692232	0
0	1787	321.823578517474	1
0	1789	321.878247921148	2
0	1792	321.977414587815	0
0	1794	323.155341197637	1
0	1796	323.254507864304	0
0	1798	323.376472452605	1
0	1800	323.475639119272	0
0	1802	323.939957201181	1
0	1804	324.007244246412	2
0	1807	324.106410913079	0
0	1809	324.845090219455	1
0	1811	324.944256886122	0
0	1813	325.825510432219	1
0	1815	325.924677098886	0
0	1817	326.062889571455	1
0	1819	326.162056238122	0
0	1821	326.720867391993	1
0	1823	326.82003405866	0
0	1825	327.282993747945	1
0	1827	327.382160414612	0
0	1829	328.128073788496	1
0	1831	328.227240455163	0
0	1833	329.136686880742	1
0	1835	329.235853547409	0
0	1837	330.441962990683	1
0	1839	330.54112965735	0
0	1841	330.605050031594	1
0	1843	330.704216698261	0
0	1845	330.856461501728	1
0	1847	330.955628168395	0
0	1849	331.247677551269	1
0	1851	331.346844217936	0
0	1853	331.609035412382	1
0	1855	331.708202079049	0
0	1857	331.985138738656	1
0	1859	332.084305405323	0
0	1861	332.214090440344	1
0	1863	332.313257107011	0
0	1865	334.626095674099	1
0	1867	334.725262340766	0
0	1869	334.912728122611	1
0	1871	335.011894789278	0
0	1873	336.67768572475	1
0	1875	336.776852391417	0
0	1877	336.871141698511	1
0	1879	336.970308365178	0
0	1881	337.081474160445	1
0	1883	337.180640827112	0
0	1885	339.023645608055	1
0	1887	339.122812274722	0
0	1889	339.389588086248	1
0	1891	339.488754752915	0
0	1893	339.978265444642	1
0	1895	340.077432111309	0
0	1897	341.659325739623	1
0	1899	341.75849240629	0
0	1901	343.04765237978	1
0	1903	343.146819046447	0
0	1905	344.197408966054	1
0	1907	344.265086688497	2
0	1910	344.364253355164	0
0	1912	344.364442248831	1
0	1914	344.463608915498	0
0	1916	345.020963954033	1
0	1918	345.1201306207	0
0	1920	345.559509878985	1
0	1922	345.658676545652	0
0	1924	345.79618401312	1
0	1926	345.884934837772	2
0	1929	345.984101504439	0
0	1931	347.744407823996	1
0	1933	347.843574490663	0
0	1935	347.941469413749	1
0	1937	348.040636080416	0
0	1939	350.617647478813	1
0	1941	350.71681414548	0
0	1943	350.914635123078	1
0	1945	351.013801789745	0
0	1947	351.870652439393	1
0	1949	351.96981910606	0
0	1951	353.25180725802	1
0	1953	353.350973924687	0
0	1955	354.001896833932	1
0	1957	354.101063500599	0
0	1959	355.250717357401	1
0	1961	355.349884024068	0
0	1963	356.245685606317	1
0	1965	356.344852272984	0
0	1967	357.09358274082	1
0	1969	357.192749407487	0
0	1971	359.576618811165	1
0	1973	359.675785477832	0
0	1975	360.66848621925	1
0	1977	360.767652885917	0
0	1979	361.545691778753	1
0	1981	361.64485844542	0
0	1983	361.796988038007	1
0	1985	361.896154704674	0
0	1987	362.586391368881	1
0	1989	362.685558035548	0
0	1991	363.651351749885	1
0	1993	363.750518416552	0
0	1995	364.072959364861	1
0	1997	364.172126031528	0
0	1999	365.061504484561	1
0	2001	365.132778807567	2
0	2004	365.231945474234	0
0	2006	365.856100169986	1
0	2008	365.955266836653	0
0	2010	366.876408527902	1
0	2012	366.975575194569	0
0	2014	367.174020534258	1
0	2016	367.273187200925	0
0	2018	367.895535071394	1
0	2020	367.994701738061	0
0	2022	369.311352221007	1
0	2024	369.410518887674	0
0	2026	369.448570392861	1
0	2028	369.547737059528	0
0	2030	369.917937160088	1
0	2032	370.017103826755	0
0	2034	370.256934594006	1
0	2036	370.356101260673	0
0	2038	371.434961104461	1
0	2040	371.534127771128	0
0	2042	371.749742731872	1
0	2044	371.848909398539	0
0	2046	372.151213122864	1
0	2048	372.250379789531	0
0	2050	372.276445119241	1
0	2052	372.375611785908	0
0	2054	372.882554395677	1
0	2056	372.981721062344	0
0	2058	373.913750331497	1
0	2060	374.012916998164	0
0	2062	374.161831064591	1
0	2064	374.260997731258	0
0	2066	378.767872540905	1
0	2068	378.867039207572	0
0	2070	379.944068799215	1
0	2072	380.043235465882	0
0	2074	380.679727322298	1
0	2076	380.753123481629	2
0	2079	380.852290148296	0
0	2081	383.373512894944	1
0	2083	383.472679561611	0
0	2085	384.180760169669	1
0	2087	384.279926836336	0
0	2089	384.385178239406	1
0	2091	384.484344906073	0
0	2093	384.893629049182	1
0	2095	384.992795715849	0
0	2097	385.520155757048	1
0	2099	385.619322423715	0
0	2101	385.922015677443	1
0	2103	386.02118234411	0
0	2105	386.1586765158	1
0	2107	386.257843182467	0
0	2109	386.762125918397	1
0	2111	386.861292585064	0
0	2113	389.055516776715	1
0	2115	389.154683443382	0
0	2117	389.326144999447	1
0	2119	389.425311666114	0
0	2121	389.53237311669	1
0	2123	389.631539783357	0
0	2125	391.37589642284	1
0	2127	391.475063089507	0
0	2129	391.710282117251	1
0	2131	391.809448783918	0
0	2133	392.163122194549	1
0	2135	392.262288861216	0
0	2137	392.647798427461	1
0	2139	392.746965094128	0
0	2141	392.919812680635	1
0	2143	393.018979347302	0
0	2145	395.593401901373	1
0	2147	395.69256856804	0
0	2149	396.595975653078	1
0	2151	396.695142319745	0
0	2153	397.873042005035	1
0	2155	397.972208671702	0
0	2157	398.308493859994	1
0	2159	398.407660526661	0
0	2161	399.101741767967	1
0	2163	399.200908434634	0
0	2165	399.335435663441	1
0	2167	399.434602330108	0
0	2169	400.143916109888	1
0	2171	400.216823533822	2
0	2174	400.315990200489	0
0	2176	400.430920974139	1
0	2178	400.514615954929	2
0	2181	400.613782621596	0
0	2183	401.823711004211	1
0	2185	401.922877670878	0
0	2187	403.845603833335	1
0	2189	403.944770500002	0
0	2191	404.44361039908	1
0	2193	404.483859392483	2
0	2196	404.58302605915	0
0	2198	405.022587423924	1
0	2200	405.121754090591	0
0	2202	405.573026175846	1
0	2204	405.672192842513	0
0	2206	406.242906743423	1
0	2208	406.34207341009	0
0	2210	406.51323556622	1