version 3
run PureAlohaExperiment-8-20260306-12:10:16-8840
attr configname PureAlohaExperiment
attr datetime 20260306-12:10:16
attr datetimef 20260306-121016
attr experiment PureAlohaExperiment
attr inifile omnetpp.ini
attr iterationvars "$numHosts=10, $iaMean=5"
attr iterationvarsd numHosts=10/iaMean=5
attr iterationvarsf numHosts=10,iaMean=5-
attr measurement "$numHosts=10, $iaMean=5"
attr network Aloha
attr processid 8840
attr repetition 0
attr replication #0
attr resultdir results
attr runnumber 8
attr seedset 8
itervar iaMean 5
itervar numHosts 10
config description "Channel utilization in the function of packet generation frequency"
config repeat 2
config sim-time-limit 90min
config Aloha.numHosts 10
config Aloha.host[*].iaTime exponential(5s)
config network Aloha
config Aloha.numHosts 20
config Aloha.slotTime 0s
config Aloha.txRate 9.6kbps
config Aloha.host[*].pkLenBits 952b
config **.x "uniform(0m, 1000m)"
config **.y "uniform(0m, 1000m)"
config **.animationHoldTimeOnCollision 0s
config **.idleAnimationSpeed 1
config **.transmissionEdgeAnimationSpeed 1e-6
config **.midTransmissionAnimationSpeed 1e-1

vector 0 Aloha.server serverChannelState:vector ETV
attr enum IDLE=0,TRANSMISSION=1,COLLISION=2
attr recordingmode vector
attr source channelState
attr title "Channel state"
vector 1 Aloha.host[0] radioState:vector ETV
attr enum IDLE=0,TRANSMIT=1
attr recordingmode vector
attr source state
attr title "Radio state"
vector 2 Aloha.host[1] radioState:vector ETV
attr enum IDLE=0,TRANSMIT=1
attr recordingmode vector
attr source state
attr title "Radio state"
vector 3 Aloha.host[2] radioState:vector ETV
attr enum IDLE=0,TRANSMIT=1
attr recordingmode vector
attr source state
attr title "Radio state"
vector 4 Aloha.host[3] radioState:vector ETV
attr enum IDLE=0,TRANSMIT=1
attr recordingmode vector
attr source state
attr title "Radio state"
vector 5 Aloha.host[4] radioState:vector ETV
attr enum IDLE=0,TRANSMIT=1
attr recordingmode vector
attr source state
attr title "Radio state"
vector 6 Aloha.host[5] radioState:vector ETV
attr enum IDLE=0,TRANSMIT=1
attr recordingmode vector
attr source state
attr title "Radio state"
vector 7 Aloha.host[6] radioState:vector ETV
attr enum IDLE=0,TRANSMIT=1
attr recordingmode vector
attr source state
attr title "Radio state"
vector 8 Aloha.host[7] radioState:vector ETV
attr enum IDLE=0,TRANSMIT=1
attr recordingmode vector
attr source state
attr title "Radio state"
vector 9 Aloha.host[8] radioState:vector ETV
attr enum IDLE=0,TRANSMIT=1
attr recordingmode vector
attr source state
attr title "Radio state"
vector 10 Aloha.host[9] radioState:vector ETV
attr enum IDLE=0,TRANSMIT=1
attr recordingmode vector
attr source state
attr title "Radio state"
vector 11 Aloha.server channelUtilizationVector:vector ETV
attr interpolationmode linear
attr recordingmode vector
attr source timeavg(receive)
attr title "channel utilization evolution"
0	0	0	0
0	2	0.107558280563	1
0	4	0.20672494723	0
0	6	1.912666850008	1
0	8	2.011833516675	0
0	10	2.1755933829	1
0	12	2.274760049567	0
0	14	2.576492011331	1
0	16	2.675658677998	0
0	18	2.776432222803	1
0	20	2.87559888947	0
0	22	3.91958541788	1
0	24	4.018752084547	0
0	26	4.295315676147	1
0	28	4.394482342814	0
0	30	4.833740992005	1
0	32	4.906230873574	2
0	35	5.005397540241	0
0	37	5.301931490705	1
0	39	5.345766108652	2
0	42	5.444932775319	0
0	44	5.629109534557	1
0	46	5.728276201224	0
0	48	6.045395566113	1
0	50	6.14456223278	0
0	52	6.230484721086	1
0	54	6.329651387753	0
0	56	6.48750515461	1
0	58	6.586671821277	0
0	60	6.828564236274	1
0	62	6.927730902941	0
0	64	7.128660302119	1
0	66	7.154277367836	2
0	69	7.253444034503	0
0	71	7.595752058161	1
0	73	7.694918724828	0
0	75	7.936493296457	1
0	77	8.035659963124	0
0	79	8.117442500052	1
0	81	8.216609166719	0
0	83	8.52605830569	1
0	85	8.53067643519	2
0	88	8.629843101857	0
0	90	8.967895945041	1
0	92	9.067062611708	0
0	94	10.154576267013	1
0	96	10.25374293368	0
0	98	10.717974248394	1
0	100	10.817140915061	0
0	102	11.371367874919	1
0	104	11.470534541586	0
0	106	11.82131300425	1
0	108	11.920479670917	0
0	110	12.372868145628	1
0	112	12.472034812295	0
0	114	12.56935825639	1
0	116	12.617799308423	2
0	119	12.670967875292	2
0	122	12.770134541959	0
0	124	13.065507547998	1
0	126	13.164674214665	0
0	128	14.3742935506	1
0	130	14.473460217267	0
0	132	14.690640205882	1
0	134	14.789806872549	0
0	136	14.883856929184	1
0	138	14.983023595851	0
0	140	15.562592167381	1
0	142	15.661758834048	0
0	144	16.4148590984	1
0	146	16.514025765067	0
0	148	18.171016662404	1
0	150	18.270183329071	0
0	152	18.697322412953	1
0	154	18.79648907962	0
0	156	19.58904679516	1
0	158	19.688213461827	0
0	160	19.953641316469	1
0	162	20.052807983136	0
0	164	20.196215348848	1
0	166	20.295382015515	0
0	168	20.378847310627	1
0	170	20.478013977294	0
0	172	20.495292422514	1
0	174	20.594459089181	0
0	176	20.656929364097	1
0	178	20.756096030764	0
0	180	21.085486133108	1
0	182	21.184652799775	0
0	184	21.869934073776	1
0	186	21.969100740443	0
0	188	22.012817937803	1
0	190	22.11198460447	0
0	192	22.467800710445	1
0	194	22.520574069291	2
0	197	22.619740735958	0
0	199	23.145907618794	1
0	201	23.245074285461	0
0	203	23.987642787229	1
0	205	24.086809453896	0
0	207	25.231794002738	1
0	209	25.330960669405	0
0	211	25.779711078647	1
0	213	25.878877745314	0
0	215	25.950342237389	1
0	217	26.041535859508	2
0	220	26.140702526175	0
0	222	26.216977711163	1
0	224	26.268507688645	2
0	227	26.367674355312	0
0	229	27.246959146614	1
0	231	27.346125813281	0
0	233	27.79854670266	1
0	235	27.897713369327	0
0	237	28.629697147843	1
0	239	28.668115888641	2
0	242	28.767282555308	0
0	244	29.179660089957	1
0	246	29.278826756624	0
0	248	29.630118872853	1
0	250	29.72928553952	0
0	252	29.927733604078	1
0	254	30.026900270745	0
0	256	30.792852186172	1
0	258	30.892018852839	0
0	260	31.02410991492	1
0	262	31.123276581587	0
0	264	31.137770782961	1
0	266	31.236937449628	0
0	268	32.024569157245	1
0	270	32.123735823912	0
0	272	32.279274529701	1
0	274	32.378441196368	0
0	276	32.38623023374	1
0	278	32.485396900407	0
0	280	32.947965355538	1
0	282	33.047132022205	0
0	284	33.152206509019	1
0	286	33.251373175686	0
0	288	33.466954851486	1
0	290	33.566121518153	0
0	292	33.848790120192	1
0	294	33.927020281999	2
0	297	34.026186948666	0
0	299	34.175022922069	1
0	301	34.259514422223	2
0	304	34.35868108889	0
0	306	34.384425925018	1
0	308	34.483592591685	0
0	310	34.88763299992	1
0	312	34.986799666587	0
0	314	35.342796900625	1
0	316	35.441963567292	0
0	318	37.310071519393	1
0	320	37.400776195171	2
0	323	37.499942861838	0
0	325	37.86709583028	1
0	327	37.966262496947	0
0	329	38.117560703081	1
0	331	38.216727369748	0
0	333	39.417720351678	1
0	335	39.516887018345	0
0	337	40.686884241532	1
0	339	40.786050908199	0
0	341	41.554964873989	1
0	343	41.654131540656	0
0	345	41.679822520345	1
0	347	41.778989187012	0
0	349	41.8648136411	1
0	351	41.963980307767	0
0	353	42.425908317432	1
0	355	42.515026052893	2
0	358	42.61419271956	0
0	360	43.292387850787	1
0	362	43.391554517454	0
0	364	44.829025890916	1
0	366	44.928192557583	0
0	368	46.182743511428	1
0	370	46.18686864397	2
0	373	46.286035310637	0
0	375	46.330594716415	1
0	377	46.429761383082	0
0	379	46.497245250622	1
0	381	46.596411917289	0
0	383	46.947968511244	1
0	385	47.047135177911	0
0	387	47.178418516573	1
0	389	47.27758518324	0
0	391	47.320502160943	1
0	393	47.387271535011	2
0	396	47.47552513013	2
0	399	47.574691796797	0
0	401	48.111011610704	1
0	403	48.210178277371	0
0	405	48.86415204172	1
0	407	48.963318708387	0
0	409	49.001272959721	1
0	411	49.100439626388	0
0	413	49.183610423738	1
0	415	49.238438397772	2
0	418	49.337605064439	0
0	420	49.906343868516	1
0	422	50.005510535183	0
0	424	50.130606887959	1
0	426	50.229773554626	0
0	428	50.266897380151	1
0	430	50.310152013936	2
0	433	50.409318680603	0
0	435	51.447295748537	1
0	437	51.546462415204	0
0	439	52.238588086643	1
0	441	52.317771828052	2
0	444	52.416938494719	0
0	446	52.872418639187	1
0	448	52.971585305854	0
0	450	53.90764986551	1
0	452	54.006816532177	0
0	454	54.631904599206	1
0	456	54.731071265873	0
0	458	54.928646569895	1
0	460	55.027813236562	0
0	462	55.219345183866	1
0	464	55.318511850533	0
0	466	55.838599730619	1
0	468	55.937766397286	0
0	470	56.103305369957	1
0	472	56.202472036624	0
0	474	56.611137570407	1
0	476	56.710304237074	0
0	478	56.850904372408	1
0	480	56.950071039075	0
0	482	57.275129217262	1
0	484	57.374295883929	0
0	486	58.412990796049	1
0	488	58.512157462716	0
0	490	58.735981092726	1
0	492	58.835147759393	0
0	494	59.154188001953	1
0	496	59.25335466862	0
0	498	59.775166295629	1
0	500	59.874332962296	0
0	502	60.766252240376	1
0	504	60.865418907043	0
0	506	61.448164953041	1
0	508	61.547331619708	0
0	510	61.623470493894	1
0	512	61.722637160561	0
0	514	62.002493266108	1
0	516	62.101659932775	0
0	518	62.658897391273	1
0	520	62.75806405794	0
0	522	63.263224620048	1
0	524	63.362391286715	0
0	526	63.495557466088	1
0	528	63.594724132755	0
0	530	64.733414449852	1
0	532	64.832581116519	0
0	534	64.889107954433	1
0	536	64.9882746211	0
0	538	65.258215844485	1
0	540	65.357382511152	0
0	542	65.811669097774	1
0	544	65.910835764441	0
0	546	65.987512331134	1
0	548	66.086678997801	0
0	550	66.215303859304	1
0	552	66.314470525971	0
0	554	66.996910614974	1
0	556	67.096077281641	0
0	558	69.312705803349	1
0	560	69.411872470016	0
0	562	69.545809350546	1
0	564	69.644976017213	0
0	566	69.666612486458	1
0	568	69.765779153125	0
0	570	69.837200544772	1
0	572	69.936367211439	0
0	574	70.065427360318	1
0	576	70.164594026985	0
0	578	70.258495909833	1
0	580	70.3576625765	0
0	582	71.149275297458	1
0	584	71.186625034346	2
0	587	71.285791701013	0
0	589	71.729799743862	1
0	591	71.790251333598	2
0	594	71.889418000265	0
0	596	72.768702356376	1
0	598	72.867869023043	0
0	600	73.158591135412	1
0	602	73.257757802079	0
0	604	73.584169168601	1
0	606	73.683335835268	0
0	608	73.834559365934	1
0	610	73.893909342526	2
0	613	73.993076009193	0
0	615	74.455347757563	1
0	617	74.55451442423	0
0	619	75.734244048282	1
0	621	75.766640383152	2
0	624	75.865807049819	0
0	626	75.959884292675	1
0	628	76.059050959342	0
0	630	76.082750421489	1
0	632	76.181917088156	0
0	634	76.191393626492	1
0	636	76.290560293159	0
0	638	76.332275731041	1
0	640	76.431442397708	0
0	642	76.578142731283	1
0	644	76.587554755073	2
0	647	76.68672142174	0
0	649	77.183887897849	1
0	651	77.212022992089	2
0	654	77.311189658756	0
0	656	78.879981188687	1
0	658	78.979147855354	0
0	660	80.074888104809	1
0	662	80.174054771476	0
0	664	80.769607616738	1
0	666	80.868774283405	0
0	668	81.103794402649	1
0	670	81.202961069316	0
0	672	81.899507417101	1
0	674	81.941974602437	2
0	677	82.041141269104	0
0	679	83.286563830613	1
0	681	83.38573049728	0
0	683	83.413040438757	1
0	685	83.512207105424	0
0	687	84.09881599854	1
0	689	84.197982665207	0
0	691	84.44692963682	1
0	693	84.546096303487	0
0	695	85.953460787685	1
0	697	85.969165604596	2
0	700	86.068332271263	0
0	702	87.399444343319	1
0	704	87.498611009986	0
0	706	88.842539507877	1
0	708	88.941706174544	0
0	710	89.921068423617	1
0	712	90.020235090284	0
0	714	91.733850017251	1
0	716	91.833016683918	0
0	718	92.576339552483	1
0	720	92.67550621915	0
0	722	92.846597037894	1
0	724	92.86990698448	2
0	727	92.969073651147	0
0	729	93.471648166718	1
0	731	93.570814833385	0
0	733	96.010985735274	1
0	735	96.110152401941	0
0	737	96.19340993303	1
0	739	96.292576599697	0
0	741	96.457819423185	1
0	743	96.556986089852	0
0	745	96.693329154289	1
0	747	96.792495820956	0
0	749	97.180879174918	1
0	751	97.280045841585	0
0	753	97.283766698744	1
0	755	97.382933365411	0
0	757	97.775020633941	1
0	759	97.874187300608	0
0	761	98.201279406258	1
0	763	98.293123335912	2
0	766	98.392290002579	0
0	768	99.251304053909	1
0	770	99.350470720576	0
0	772	99.581953079942	1
0	774	99.659817258501	2
0	777	99.758983925168	0
0	779	100.905581188211	1
0	781	101.004747854878	0
0	783	101.55732448288	1
0	785	101.656491149547	0
0	787	102.664105658463	1
0	789	102.76327232513	0
0	791	103.365447384898	1
0	793	103.464614051565	0
0	795	104.653238023234	1
0	797	104.752404689901	0
0	799	105.653876216999	1
0	801	105.753042883666	0
0	803	105.956123353944	1
0	805	106.055290020611	0
0	807	106.469574002572	1
0	809	106.568740669239	0
0	811	106.976883449503	1
0	813	107.07605011617	0
0	815	107.579100474237	1
0	817	107.678267140904	0
0	819	108.226657464257	1
0	821	108.325824130924	0
0	823	108.89540906445	1
0	825	108.918853829709	2
0	828	109.018020496376	0
0	830	109.092730016823	1
0	832	109.19189668349	0
0	834	109.342384439806	1
0	836	109.441551106473	0
0	838	109.658437016104	1
0	840	109.757603682771	0
0	842	109.82288153188	1
0	844	109.920736143118	2
0	847	110.019902809785	0
0	849	110.975079258283	1
0	851	111.07424592495	0
0	853	111.236063530536	1
0	855	111.335230197203	0
0	857	111.947791107182	1
0	859	112.020651695008	2
0	862	112.119818361675	0
0	864	112.724460843214	1
0	866	112.756942620249	2
0	869	112.832832631546	2
0	872	112.931999298213	0
0	874	113.175779729463	1
0	876	113.27494639613	0
0	878	113.424042710666	1
0	880	113.507762968561	2
0	883	113.606929635228	0
0	885	113.69029950326	1
0	887	113.789466169927	0
0	889	114.103227717223	1
0	891	114.20239438389	0
0	893	114.369101998241	1
0	895	114.468268664908	0
0	897	114.829461431134	1
0	899	114.928628097801	0
0	901	115.010819942644	1
0	903	115.109986609311	0
0	905	116.582739101198	1
0	907	116.681905767865	0
0	909	116.699368485626	1
0	911	116.798535152293	0
0	913	117.291095858309	1
0	915	117.390262524976	0
0	917	117.812236685247	1
0	919	117.901985256739	2
0	922	118.001151923406	0
0	924	118.242658065053	1
0	926	118.34182473172	0
0	928	118.346145443964	1
0	930	118.445312110631	0
0	932	118.588993406244	1
0	934	118.688160072911	0
0	936	119.089468097726	1
0	938	119.188634764393	0
0	940	119.287867383549	1
0	942	119.387034050216	0
0	944	119.651030432638	1
0	946	119.750197099305	0
0	948	119.865040771315	1
0	950	119.964207437982	0
0	952	120.197156069575	1
0	954	120.296322736242	0
0	956	120.395809003125	1
0	958	120.494975669792	0
0	960	121.072508522781	1
0	962	121.171675189448	0
0	964	121.230413240846	1
0	966	121.295162272561	2
0	969	121.394328939228	0
0	971	121.441056626215	1
0	973	121.540223292882	0
0	975	122.419049210606	1
0	977	122.518215877273	0
0	979	123.106193094699	1
0	981	123.205359761366	0
0	983	123.455427568456	1
0	985	123.554594235123	0
0	987	123.655896707573	1
0	989	123.740229831811	2
0	992	123.800465238659	2
0	995	123.899631905326	0
0	997	124.072181284445	1
0	999	124.171347951112	0
0	1001	124.423717929679	1
0	1003	124.522884596346	0
0	1005	124.581398429058	1
0	1007	124.582804568321	2
0	1009	124.625170513581	2
0	1013	124.724337180248	0
0	1015	124.982559473509	1
0	1017	125.081726140176	0
0	1019	126.057624069916	1
0	1021	126.156790736583	0
0	1023	126.889055823985	1
0	1025	126.97706691687	2
0	1028	127.076233583537	0
0	1030	127.457719443378	1
0	1032	127.556886110045	0
0	1034	128.445806264681	1
0	1036	128.544972931348	0
0	1038	128.909969106271	1
0	1040	129.009135772938	0
0	1042	129.741249385879	1
0	1044	129.840416052546	0
0	1046	130.329136365787	1
0	1048	130.428303032454	0
0	1050	130.464465530751	1
0	1052	130.563632197418	0
0	1054	130.633044225856	1
0	1056	130.638466046198	2
0	1059	130.737632712865	0
0	1061	130.85834176952	1
0	1063	130.957508436187	0
0	1065	131.496178960445	1
0	1067	131.568355455867	2
0	1070	131.667522122534	0
0	1072	131.918562991579	1
0	1074	132.017729658246	0
0	1076	132.175340720233	1
0	1078	132.2745073869	0
0	1080	132.380921495874	1
0	1082	132.480088162541	0
0	1084	132.590199751827	1
0	1086	132.689366418494	0
0	1088	134.41760111897	1
0	1090	134.516767785637	0
0	1092	134.808406790417	1
0	1094	134.907573457084	0
0	1096	135.998287161492	1
0	1098	136.069087077085	2
0	1101	136.168253743752	0
0	1103	136.890969849187	1
0	1105	136.990136515854	0
0	1107	138.140857699285	1
0	1109	138.240024365952	0
0	1111	139.42622249716	1
0	1113	139.525389163827	0
0	1115	139.817507882652	1
0	1117	139.916674549319	0
0	1119	140.181253883342	1
0	1121	140.280420550009	0
0	1123	141.903357006577	1
0	1125	141.920217980715	2
0	1127	141.926848936702	2
0	1131	142.026015603369	0
0	1133	142.701939092363	1
0	1135	142.773828735806	2
0	1138	142.872995402473	0
0	1140	143.014968937199	1
0	1142	143.062676841954	2
0	1145	143.150129571662	2
0	1148	143.249296238329	0
0	1150	143.296969032326	1
0	1152	143.396135698993	0
0	1154	143.589292284301	1
0	1156	143.688458950968	0
0	1158	144.30258345085	1
0	1160	144.401750117517	0
0	1162	144.802015884033	1
0	1164	144.9011825507	0
0	1166	145.272194844298	1
0	1168	145.371361510965	0
0	1170	145.513515655842	1
0	1172	145.612682322509	0
0	1174	146.705648383312	1
0	1176	146.804815049979	0
0	1178	147.268186626111	1
0	1180	147.367353292778	0
0	1182	147.860783328237	1
0	1184	147.959949994904	0
0	1186	148.238533662086	1
0	1188	148.291453137565	2
0	1191	148.390619804232	0
0	1193	148.598368781378	1
0	1195	148.697535448045	0
0	1197	149.389596734058	1
0	1199	149.488763400725	0
0	1201	150.241224321323	1
0	1203	150.34039098799	0
0	1205	150.355195989277	1
0	1207	150.454362655944	0
0	1209	151.520686797128	1
0	1211	151.619853463795	0
0	1213	151.628279547904	1
0	1215	151.727446214571	0
0	1217	152.209068439017	1
0	1219	152.308235105684	0
0	1221	152.515958436287	1
0	1223	152.615125102954	0
0	1225	152.657477555377	1
0	1227	152.756644222044	0
0	1229	154.336324741641	1
0	1231	154.367410535077	2
0	1233	154.394378959681	2
0	1237	154.493545626348	0
0	1239	154.76310996466	1
0	1241	154.835479028479	2
0	1244	154.934645695146	0
0	1246	154.999288117737	1
0	1248	155.098454784404	0
0	1250	158.005206565732	1
0	1252	158.104373232399	0
0	1254	158.636087167965	1
0	1256	158.735253834632	0
0	1258	159.061954867059	1
0	1260	159.161121533726	0
0	1262	159.651588831939	1
0	1264	159.750755498606	0
0	1266	160.719706525756	1
0	1268	160.818873192423	0
0	1270	160.962489907179	1
0	1272	161.061656573846	0
0	1274	162.194526850107	1
0	1276	162.233306821795	2
0	1279	162.332473488462	0
0	1281	162.395503234356	1
0	1283	162.494669901023	0
0	1285	164.162524544595	1
0	1287	164.261691211262	0
0	1289	164.956480712663	1
0	1291	165.05564737933	0
0	1293	165.390451974808	1
0	1295	165.489618641475	0
0	1297	166.506730497216	1
0	1299	166.605897163883	0
0	1301	166.89492708275	1
0	1303	166.911030248237	2
0	1306	167.010196914904	0
0	1308	167.224016797847	1
0	1310	167.323183464514	0
0	1312	168.872441066577	1
0	1314	168.971607733244	0
0	1316	169.078806294876	1
0	1318	169.177972961543	0
0	1320	169.908384582535	1
0	1322	170.007551249202	0
0	1324	170.025518132872	1
0	1326	170.124684799539	0
0	1328	170.336993311471	1
0	1330	170.436159978138	0
0	1332	172.248804144838	1
0	1334	172.347970811505	0
0	1336	172.349965115009	1
0	1338	172.449131781676	0
0	1340	172.680400861243	1
0	1342	172.77956752791	0
0	1344	173.620798136536	1
0	1346	173.719964803203	0
0	1348	173.941764667114	1
0	1350	174.035404338777	2
0	1353	174.134571005444	0
0	1355	175.84576094953	1
0	1357	175.944927616197	0
0	1359	175.9842286655	1
0	1361	176.083395332167	0
0	1363	176.285358618361	1
0	1365	176.384525285028	0
0	1367	177.34732307029	1
0	1369	177.446489736957	0
0	1371	177.982009614065	1
0	1373	178.081176280732	0
0	1375	178.328962955426	1
0	1377	178.428129622093	0
0	1379	178.463465631417	1
0	1381	178.535193106254	2
0	1384	178.628105425177	2
0	1387	178.727272091844	0
0	1389	178.73540905726	1
0	1391	178.834575723927	0
0	1393	179.641878487593	1
0	1395	179.74104515426	0
0	1397	180.264096225808	1
0	1399	180.344501538352	2
0	1402	180.443668205019	0
0	1404	180.450046149247	1
0	1406	180.549212815914	0
0	1408	181.327769936798	1
0	1410	181.426936603465	0
0	1412	181.962881934673	1
0	1414	182.06204860134	0
0	1416	182.087884720491	1
0	1418	182.187051387158	0
0	1420	183.111267275126	1
0	1422	183.210433941793	0
0	1424	183.851045086169	1
0	1426	183.950211752836	0
0	1428	184.505020543272	1
0	1430	184.604187209939	0
0	1432	184.822598919128	1
0	1434	184.921765585795	0
0	1436	185.291310090943	1
0	1438	185.39047675761	0
0	1440	185.456110956413	1
0	1442	185.55527762308	0
0	1444	185.737847839337	1
0	1446	185.830693322442	2
0	1449	185.929859989109	0
0	1451	186.205444515967	1
0	1453	186.304611182634	0
0	1455	186.412922454667	1
0	1457	186.512089121334	0
0	1459	186.544532825408	1
0	1461	186.643699492075	0
0	1463	186.64793028328	1
0	1465	186.747096949947	0
0	1467	186.939648174261	1
0	1469	187.038814840928	0
0	1471	187.059684312013	1
0	1473	187.15885097868	0
0	1475	187.651170814539	1
0	1477	187.750337481206	0
0	1479	187.878969413981	1
0	1481	187.978136080648	0
0	1483	188.953187533638	1
0	1485	189.052354200305	0
0	1487	189.256072000013	1
0	1489	189.349025309882	2
0	1492	189.448191976549	0
0	1494	190.386774766754	1
0	1496	190.485941433421	0
0	1498	190.66022061129	1
0	1500	190.759387277957	0
0	1502	190.802903580605	1
0	1504	190.902070247272	0
0	1506	191.267634502171	1
0	1508	191.366801168838	0
0	1510	192.182599145991	1
0	1512	192.281765812658	0
0	1514	192.5120242278	1
0	1516	192.611190894467	0
0	1518	192.863127162695	1
0	1520	192.962293829362	0
0	1522	193.707985845283	1
0	1524	193.80715251195	0
0	1526	194.433470261453	1
0	1528	194.53263692812	0
0	1530	194.856586105383	1
0	1532	194.95575277205	0
0	1534	196.068812850407	1
0	1536	196.167979517074	0
0	1538	196.308780425338	1
0	1540	196.407947092005	0
0	1542	197.277261336209	1
0	1544	197.376428002876	0
0	1546	198.132211094934	1
0	1548	198.231377761601	0
0	1550	198.685433655914	1
0	1552	198.784600322581	0
0	1554	199.394771476599	1
0	1556	199.493938143266	0
0	1558	200.144345538794	1
0	1560	200.243512205461	0
0	1562	200.542297833661	1
0	1564	200.630921350768	2
0	1567	200.730088017435	0
0	1569	201.182950387589	1
0	1571	201.282117054256	0
0	1573	202.022326609464	1
0	1575	202.121493276131	0
0	1577	203.684069861757	1
0	1579	203.783236528424	0
0	1581	204.696942473032	1
0	1583	204.796109139699	0
0	1585	206.619754083978	1
0	1587	206.636551390589	2
0	1589	206.705402660243	2
0	1593	206.80456932691	0
0	1595	207.109079665045	1
0	1597	207.208246331712	0
0	1599	207.724271464731	1
0	1601	207.794108877822	2
0	1604	207.893275544489	0
0	1606	207.99383471066	1
0	1608	208.093001377327	0
0	1610	209.531523507305	1
0	1612	209.630690173972	0
0	1614	210.071500707077	1
0	1616	210.170667373744	0
0	1618	210.878739001864	1
0	1620	210.977905668531	0
0	1622	212.020027658457	1
0	1624	212.119194325124	0
0	1626	212.173469772697	1
0	1628	212.272636439364	0
0	1630	212.779039128991	1
0	1632	212.878205795658	0
0	1634	213.605966888052	1
0	1636	213.703616928333	2
0	1639	213.802783595	0
0	1641	214.778174296277	1
0	1643	214.877340962944	0
0	1645	215.451110299672	1
0	1647	215.550276966339	0
0	1649	215.798943846375	1
0	1651	215.898110513042	0
0	1653	216.146955150748	1
0	1655	216.246121817415	0
0	1657	216.610608495121	1
0	1659	216.709775161788	0
0	1661	216.733449762948	1
0	1663	216.832616429615	0
0	1665	217.494838508221	1
0	1667	217.594005174888	0
0	1669	218.313119465519	1
0	1671	218.412286132186	0
0	1673	218.84344720721	1
0	1675	218.942613873877	0
0	1677	219.48266747543	1
0	1679	219.581834142097	0
0	1681	219.6933957454	1
0	1683	219.792562412067	0
0	1685	219.985966485109	1
0	1687	220.085133151776	0
0	1689	221.123747273721	1
0	1691	221.222913940388	0
0	1693	221.36462451931	1
0	1695	221.463791185977	0
0	1697	221.510805391432	1
0	1699	221.609972058099	0
0	1701	221.70521266747	1
0	1703	221.804379334137	0
0	1705	221.997454739377	1
0	1707	222.096621406044	0
0	1709	222.753855248116	1
0	1711	222.782651289278	2
0	1714	222.881817955945	0
0	1716	222.903141004195	1
0	1718	222.974050932356	2
0	1721	223.073217599023	0
0	1723	223.923147547439	1
0	1725	224.022314214106	0
0	1727	224.334267815655	1
0	1729	224.433434482322	0
0	1731	224.767393086979	1
0	1733	224.866559753646	0
0	1735	226.506924801473	1
0	1737	226.60609146814	0
0	1739	227.050063870767	1
0	1741	227.149230537434	0
0	1743	227.185549720954	1
0	1745	227.284716387621	0
0	1747	228.487270959024	1
0	1749	228.586437625691	0
0	1751	228.821246858574	1
0	1753	228.920413525241	0
0	1755	229.629513241234	1
0	1757	229.728679907901	0
0	1759	229.897109261018	1
0	1761	229.970494273937	2
0	1764	230.069660940604	0
0	1766	230.559118751023	1
0	1768	230.636851589845	2
0	1771	230.736018256512	0
0	1773	231.552083756242	1
0	1775	231.651250422909	0
0	1777	231.938378732654	1
0	1779	232.037545399321	0
0	1781	232.310498457828	1
0	1783	232.409665124495	0
0	1785	233.878407439067	1
0	1787	233.977574105734	0
0	1789	234.000769699379	1
0	1791	234.099936366046	0
0	1793	235.134158708098	1
0	1795	235.233325374765	0
0	1797	235.8663389502	1
0	1799	235.965505616867	0
0	1801	236.611188552717	1
0	1803	236.710355219384	0
0	1805	236.771843158329	1
0	1807	236.871009824996	0
0	1809	237.678787931722	1
0	1811	237.777954598389	0
0	1813	237.883420080181	1
0	1815	237.982586746848	0
0	1817	239.516786893616	1
0	1819	239.615953560283	0
0	1821	239.628636135097	1
0	1823	239.727802801764	0
0	1825	239.766810525035	1
0	1827	239.865977191702	0
0	1829	239.929464431746	1
0	1831	240.028631098413	0
0	1833	240.325150928324	1
0	1835	240.424317594991	0
0	1837	241.698136195046	1
0	1839	241.797302861713	0
0	1841	242.244431683128	1
0	1843	242.343598349795	0
0	1845	242.502513541179	1
0	1847	242.601680207846	0
0	1849	242.889241978391	1
0	1851	242.988408645058	0
0	1853	243.29943920127	1
0	1855	243.398605867937	0
0	1857	243.496037237181	1
0	1859	243.528347008689	2
0	1861	243.546916543744	2
0	1865	243.646083210411	0
0	1867	243.831301630399	1
0	1869	243.930468297066	0
0	1871	243.997816128788	1
0	1873	244.096982795455	0
0	1875	244.146083278671	1
0	1877	244.245249945338	0
0	1879	244.317882446416	1
0	1881	244.417049113083	0
0	1883	244.454723503627	1
0	1885	244.553890170294	0
0	1887	244.796776119956	1
0	1889	244.797348961655	2
0	1892	244.896515628322	0
0	1894	245.308559129974	1
0	1896	245.407725796641	0
0	1898	246.342495084194	1
0	1900	246.441661750861	0
0	1902	246.671928940033	1
0	1904	246.7710956067	0
0	1906	247.072945750153	1
0	1908	247.17211241682	0
0	1910	247.698916036206	1
0	1912	247.798082702873	0
0	1914	248.081937511697	1
0	1916	248.181104178364	0
0	1918	249.423398227473	1
0	1920	249.52256489414	0
0	1922	249.873979116931	1
0	1924	249.973145783598	0
0	1926	250.340296384181	1
0	1928	250.439463050848	0
0	1930	251.292866624305	1
0	1932	251.392033290972	0
0	1934	251.547267963229	1
0	1936	251.579827495965	2
0	1939	251.678994162632	0
0	1941	251.911045191787	1
0	1943	252.010211858454	0
0	1945	252.025055280348	1
0	1947	252.124221947015	0
0	1949	253.095169338531	1
0	1951	253.194336005198	0
0	1953	253.662425783481	1
0	1955	253.761592450148	0
0	1957	256.079544426945	1
0	1959	256.178711093612	0
0	1961	256.467109304319	1
0	1963	256.566275970986	0
0	1965	257.018809213622	1
0	1967	257.117975880289	0
0	1969	257.902733364292	1
0	1971	258.001900030959	0
0	1973	258.237464181693	1
0	1975	258.33663084836	0
0	1977	258.61143409041	1
0	1979	258.710600757077	0
0	1981	258.993953803377	1
0	1983	259.093120470044	0
0	1985	259.882556420877	1
0	1987	259.981723087544	0
0	1989	260.50636575494	1
0	1991	260.605532421607	0
0	1993	260.756272194208	1
0	1995	260.855438860875	0
0	1997	261.282878607453	1
0	1999	261.38204527412	0
0	2001	261.791467177624	1
0	2003	261.890633844291	0
0	2005	262.169583803813	1
0	2007	262.26875047048	0
0	2009	262.294649641822	1
0	2011	262.294659220777	2
0	2014	262.393825887444	0
0	2016	262.930587884472	1
0	2018	263.029754551139	0
0	2020	263.596054399409	1
0	2022	263.673550999563	2
0	2025	263.77271766623	0
0	2027	264.933977458916	1
0	2029	265.033144125583	0
0	2031	265.345452115881	1
0	2033	265.353614839767	2
0	2036	265.452781506434	0
0	2038	265.638449430887	1
0	2040	265.737616097554	0
0	2042	265.822276343848	1
0	2044	265.921443010515	0
0	2046	266.336995981086	1
0	2048	266.436162647753	0
0	2050	266.467039403767	1
0	2052	266.566206070434	0
0	2054	267.34729872058	1
0	2056	267.446465387247	0
0	2058	268.035813412345	1
0	2060	268.134980079012	0
0	2062	268.415542163152	1
0	2064	268.514708829819	0
0	2066	269.103510356521	1
0	2068	269.202677023188	0
0	2070	270.059007325138	1
0	2072	270.158173991805	0
0	2074	271.406995257866	1
0	2076	271.506161924533	0
0	2078	271.921922694624	1
0	2080	272.021089361291	0
0	2082	272.088337283526	1
0	2084	272.187503950193	0
0	2086	272.188712720869	1
0	2088	272.287879387536	0
0	2090	272.409580267546	1
0	2092	272.508746934213	0
0	2094	272.59016435591	1
0	2096	272.689331022577	0
0	2098	273.386942178059	1
0	2100	273.486108844726	0
0	2102	273.768220557395	1
0	2104	273.867387224062	0
0	2106	274.331739498532	1
0	2108	274.430906165199	0
0	2110	274.732109256746	1
0	2112	274.831275923413	0
0	2114	274.832548709112	1
0	2116	274.931715375779	0
0	2118	274.968668433988	1
0	2120	275.067835100655	0
0	2122	276.631606641374	1
0	2124	276.696505408232	2
0	2127	276.795672074899	0
0	2129	277.316446196451	1
0	2131	277.358163118482	2
0	2134	277.457329785149	0
0	2136	277.507160046998	1
0	2138	277.606326713665	0
0	2140	277.94452582251	1
0	2142	278.043692489177	0
0	2144	278.137371870631	1
0	2146	278.236538537298	0
0	2148	279.514239975013	1
0	2150	279.61340664168	0
0	2152	279.919479343029	1
0	2154	280.018646009696	0
0	2156	282.265742807971	1
0	2158	282.364909474638	0
0	2160	282.786013638703	1
0	2162	282.88518030537	0
0	2164	283.381141608764	1
0	2166	283.480308275431	0
0	2168	283.68913197283	1
0	2170	283.788298639497	0
0	2172	284.747928563484	1
0	2174	284.847095230151	0
0	2176	285.055218844191	1
0	2178	285.154385510858	0
0	2180	285.55105946921	1
0	2182	285.650226135877	0
0	2184	286.544154965163	1
0	2186	286.64332163183	0
0	2188	286.813185406632	1
0	2190	286.912352073299	0
0	2192	287.28887652565	1
0	2194	287.356436499808	2
0	2197	287.455603166475	0
0	2199	287.713595317436	1
0	2201	287.812761984103	0
0	2203	288.108364744923	1
0	2205	288.20753141159	0
0	2207	288.407396623695	1
0	2209	288.506563290362	0
0	2211	288.755569794748	1
0	2213	288.854736461415	0
0	2215	288.928576140085	1
0	2217	289.027742806752	0
0	2219	289.588366425997	1
0	2221	289.687533092664	0
0	2223	290.655000272344	1
0	2225	290.754166939011	0
0	2227	290.850997943048	1
0	2229	290.950164609715	0
0	2231	291.188003696856	1
0	2233	291.287170363523	0
0	2235	291.435070507632	1
0	2237	291.534237174299	0
0	2239	292.735891705967	1
0	2241	292.835058372634	0
0	2243	293.195100145472	1
0	2245	293.294266812139	0
0	2247	295.257015243824	1