version 3
run PureAlohaExperiment-13-20260306-12:10:17-8840
attr configname PureAlohaExperiment
attr datetime 20260306-12:10:17
attr datetimef 20260306-121017
attr experiment PureAlohaExperiment
attr inifile omnetpp.ini
attr iterationvars "$numHosts=10, $iaMean=9"
attr iterationvarsd numHosts=10/iaMean=9
attr iterationvarsf numHosts=10,iaMean=9-
attr measurement "$numHosts=10, $iaMean=9"
attr network Aloha
attr processid 8840
attr repetition 1
attr replication #1
attr resultdir results
attr runnumber 13
attr seedset 13
itervar iaMean 9
itervar numHosts 10
config description "Channel utilization in the function of packet generation frequency"
config repeat 2
config sim-time-limit 90min
config Aloha.numHosts 10
config Aloha.host[*].iaTime exponential(9s)
config network Aloha
config Aloha.numHosts 20
config Aloha.slotTime 0s
config Aloha.txRate 9.6kbps
config Aloha.host[*].pkLenBits 952b
config **.x "uniform(0m, 1000m)"
config **.y "uniform(0m, 1000m)"
config **.animationHoldTimeOnCollision 0s
config **.idleAnimationSpeed 1
config **.transmissionEdgeAnimationSpeed 1e-6
config **.midTransmissionAnimationSpeed 1e-1

vector 0 Aloha.server serverChannelState:vector ETV
attr enum IDLE=0,TRANSMISSION=1,COLLISION=2
attr recordingmode vector
attr source channelState
attr title "Channel state"
vector 1 Aloha.host[0] radioState:vector ETV
attr enum IDLE=0,TRANSMIT=1
attr recordingmode vector
attr source state
attr title "Radio state"
vector 2 Aloha.host[1] radioState:vector ETV
attr enum IDLE=0,TRANSMIT=1
attr recordingmode vector
attr source state
attr title "Radio state"
vector 3 Aloha.host[2] radioState:vector ETV
attr enum IDLE=0,TRANSMIT=1
attr recordingmode vector
attr source state
attr title "Radio state"
vector 4 Aloha.host[3] radioState:vector ETV
attr enum IDLE=0,TRANSMIT=1
attr recordingmode vector
attr source state
attr title "Radio state"
vector 5 Aloha.host[4] radioState:vector ETV
attr enum IDLE=0,TRANSMIT=1
attr recordingmode vector
attr source state
attr title "Radio state"
vector 6 Aloha.host[5] radioState:vector ETV
attr enum IDLE=0,TRANSMIT=1
attr recordingmode vector
attr source state
attr title "Radio state"
vector 7 Aloha.host[6] radioState:vector ETV
attr enum IDLE=0,TRANSMIT=1
attr recordingmode vector
attr source state
attr title "Radio state"
vector 8 Aloha.host[7] radioState:vector ETV
attr enum IDLE=0,TRANSMIT=1
attr recordingmode vector
attr source state
attr title "Radio state"
vector 9 Aloha.host[8] radioState:vector ETV
attr enum IDLE=0,TRANSMIT=1
attr recordingmode vector
attr source state
attr title "Radio state"
vector 10 Aloha.host[9] radioState:vector ETV
attr enum IDLE=0,TRANSMIT=1
attr recordingmode vector
attr source state
attr title "Radio state"
vector 11 Aloha.server channelUtilizationVector:vector ETV
attr interpolationmode linear
attr recordingmode vector
attr source timeavg(receive)
attr title "channel utilization evolution"
0	0	0	0
0	2	0.542649299996	1
0	4	0.641815966663	0
0	6	3.19016312899	1
0	8	3.289329795657	0
0	10	3.30663124006	1
0	12	3.405797906727	0
0	14	4.199184201699	1
0	16	4.298350868366	0
0	18	5.319643268489	1
0	20	5.418809935156	0
0	22	5.50392606836	1
0	24	5.603092735027	0
0	26	5.740984458424	1
0	28	5.840151125091	0
0	30	6.184582274604	1
0	32	6.283748941271	0
0	34	7.249415418514	1
0	36	7.348582085181	0
0	38	8.073174745789	1
0	40	8.172341412456	0
0	42	9.833334336669	1
0	44	9.932501003336	0
0	46	10.095558650932	1
0	48	10.194725317599	0
0	50	10.250634156208	1
0	52	10.349800822875	0
0	54	11.457672984713	1
0	56	11.55683965138	0
0	58	12.144443598387	1
0	60	12.243610265054	0
0	62	13.812711276587	1
0	64	13.911877943254	0
0	66	14.180947975159	1
0	68	14.280114641826	0
0	70	14.57192774635	1
0	72	14.671094413017	0
0	74	17.508033473993	1
0	76	17.60720014066	0
0	78	18.212892654552	1
0	80	18.312059321219	0
0	82	18.514117222109	1
0	84	18.613283888776	0
0	86	19.628123760834	1
0	88	19.721714016239	2
0	91	19.820880682906	0
0	93	21.236953321703	1
0	95	21.33611998837	0
0	97	21.824672545385	1
0	99	21.923839212052	0
0	101	22.002624614258	1
0	103	22.101791280925	0
0	105	22.794074938113	1
0	107	22.89324160478	0
0	109	23.484948766334	1
0	111	23.584115433001	0
0	113	27.557395872521	1
0	115	27.656562539188	0
0	117	28.846267336107	1
0	119	28.945434002774	0
0	121	30.3000827803	1
0	123	30.399249446967	0
0	125	30.918152005165	1
0	127	31.017318671832	0
0	129	31.107886601832	1
0	131	31.207053268499	0
0	133	34.148584516334	1
0	135	34.247751183001	0
0	137	34.727986878498	1
0	139	34.827153545165	0
0	141	35.247507186704	1
0	143	35.346673853371	0
0	145	35.382392470411	1
0	147	35.481559137078	0
0	149	36.04832274851	1
0	151	36.147489415177	0
0	153	38.450825893049	1
0	155	38.549992559716	0
0	157	39.156665664502	1
0	159	39.255832331169	0
0	161	40.751641868894	1
0	163	40.822996660971	2
0	166	40.850916878598	2
0	169	40.950083545265	0
0	171	41.233761320521	1
0	173	41.297042468723	2
0	176	41.364879368574	2
0	179	41.464046035241	0
0	181	42.055865941158	1
0	183	42.155032607825	0
0	185	42.397180773091	1
0	187	42.496347439758	0
0	189	42.596688665004	1
0	191	42.695855331671	0
0	193	42.738741787038	1
0	195	42.837908453705	0
0	197	43.503039496543	1
0	199	43.60220616321	0
0	201	45.35288582091	1
0	203	45.452052487577	0
0	205	45.614924441244	1
0	207	45.68684501882	2
0	210	45.786011685487	0
0	212	49.184579289087	1
0	214	49.27780194857	2
0	217	49.376968615237	0
0	219	51.501588176641	1
0	221	51.600754843308	0
0	223	51.806835999807	1
0	225	51.906002666474	0
0	227	52.589857607668	1
0	229	52.606636348264	2
0	232	52.705803014931	0
0	234	53.468956718687	1
0	236	53.54399558984	2
0	239	53.643162256507	0
0	241	54.302351795191	1
0	243	54.401518461858	0
0	245	55.314147008754	1
0	247	55.413313675421	0
0	249	56.034856579006	1
0	251	56.134023245673	0
0	253	56.227838936614	1
0	255	56.327005603281	0
0	257	57.114583437214	1
0	259	57.213750103881	0
0	261	57.770706253322	1
0	263	57.846755634263	2
0	265	57.860772715491	2
0	269	57.959939382158	0
0	271	58.93075556329	1
0	273	59.029922229957	0
0	275	59.28082402227	1
0	277	59.379990688937	0
0	279	60.585454672238	1
0	281	60.684621338905	0
0	283	60.707352911884	1
0	285	60.806519578551	0
0	287	62.020975757873	1
0	289	62.12014242454	0
0	291	62.750842652796	1
0	293	62.850009319463	0
0	295	63.055927892745	1
0	297	63.155094559412	0
0	299	65.01194580598	1
0	301	65.111112472647	0
0	303	65.69109968434	1
0	305	65.790266351007	0
0	307	66.181760566514	1
0	309	66.280927233181	0
0	311	66.575395366251	1
0	313	66.674562032918	0
0	315	66.989241990096	1
0	317	67.088408656763	0
0	319	67.191557822661	1
0	321	67.27187421596	2
0	324	67.371040882627	0
0	326	68.22009631955	1
0	328	68.284177205439	2
0	331	68.373621761796	2
0	334	68.472788428463	0
0	336	68.849473595586	1
0	338	68.948640262253	0
0	340	69.454673559474	1
0	342	69.553840226141	0
0	344	69.805824565672	1
0	346	69.904991232339	0
0	348	70.761513928999	1
0	350	70.860680595666	0
0	352	71.540345065869	1
0	354	71.639511732536	0
0	356	72.805510961995	1
0	358	72.904677628662	0
0	360	73.491157833841	1
0	362	73.590324500508	0
0	364	74.12753515268	1
0	366	74.226701819347	0
0	368	75.248145971474	1
0	370	75.347312638141	0
0	372	76.045217329421	1
0	374	76.144383996088	0
0	376	76.874037699647	1
0	378	76.973204366314	0
0	380	76.999438488408	1
0	382	77.098605155075	0
0	384	77.548586904105	1
0	386	77.55291040563	2
0	389	77.652077072297	0
0	391	78.904280607159	1
0	393	78.975921467096	2
0	396	79.005323089943	2
0	399	79.10448975661	0
0	401	80.313013102927	1
0	403	80.412179769594	0
0	405	83.723481647392	1
0	407	83.822648314059	0
0	409	83.935432810565	1
0	411	83.955771879346	2
0	414	84.054938546013	0
0	416	84.590793652961	1
0	418	84.689960319628	0
0	420	89.381529503726	1
0	422	89.480696170393	0
0	424	90.10710286346	1
0	426	90.206269530127	0
0	428	90.279003077422	1
0	430	90.378169744089	0
0	432	90.911051698796	1
0	434	91.010218365463	0
0	436	91.222570834187	1
0	438	91.321737500854	0
0	440	92.271206961623	1
0	442	92.37037362829	0
0	444	92.62335371163	1
0	446	92.722520378297	0
0	448	93.254792261238	1
0	450	93.353958927905	0
0	452	94.520594556116	1
0	454	94.619761222783	0
0	456	94.891899243562	1
0	458	94.991065910229	0
0	460	95.666447997831	1
0	462	95.765614664498	0
0	464	96.456355156029	1
0	466	96.457936325717	2
0	469	96.557102992384	0
0	471	97.874898074426	1
0	473	97.974064741093	0
0	475	98.201054588177	1
0	477	98.300221254844	0
0	479	98.667503715341	1
0	481	98.766670382008	0
0	483	100.345245437032	1
0	485	100.401231652748	2
0	488	100.500398319415	0
0	490	102.73421423948	1
0	492	102.833380906147	0
0	494	106.827174689754	1
0	496	106.910360784503	2
0	499	107.00952745117	0
0	501	107.256673791172	1
0	503	107.355840457839	0
0	505	107.969818289443	1
0	507	108.06898495611	0
0	509	110.672168947668	1
0	511	110.771335614335	0
0	513	112.013922092439	1
0	515	112.113088759106	0
0	517	112.789537474662	1
0	519	112.888704141329	0
0	521	113.008884406219	1
0	523	113.108051072886	0
0	525	113.523007645823	1
0	527	113.62217431249	0
0	529	115.166129989279	1
0	531	115.265296655946	0
0	533	115.648868421454	1
0	535	115.748035088121	0
0	537	116.753742000806	1
0	539	116.852908667473	0
0	541	117.487347717878	1
0	543	117.586514384545	0
0	545	118.172678221636	1
0	547	118.271844888303	0
0	549	120.619565955278	1
0	551	120.632713944085	2
0	554	120.731880610752	0
0	556	122.758681988355	1
0	558	122.857848655022	0
0	560	124.461928725012	1
0	562	124.561095391679	0
0	564	124.988253914776	1
0	566	125.087420581443	0
0	568	125.625860926522	1
0	570	125.725027593189	0
0	572	125.754064409735	1
0	574	125.853231076402	0
0	576	126.476550738986	1
0	578	126.575717405653	0
0	580	126.788473606007	1
0	582	126.887640272674	0
0	584	130.390306539149	1
0	586	130.489473205816	0
0	588	131.362546547159	1
0	590	131.461713213826	0
0	592	131.734027009914	1
0	594	131.833193676581	0
0	596	132.503491325306	1
0	598	132.602657991973	0
0	600	132.69630262462	1
0	602	132.795469291287	0
0	604	133.434197970148	1
0	606	133.533364636815	0
0	608	133.556605288386	1
0	610	133.655771955053	0
0	612	135.659675662324	1
0	614	135.758842328991	0
0	616	136.761929980361	1
0	618	136.849422349355	2
0	621	136.948589016022	0
0	623	137.055818004923	1
0	625	137.15498467159	0
0	627	137.703208623659	1
0	629	137.717630203077	2
0	632	137.816796869744	0
0	634	137.936252874888	1
0	636	138.035419541555	0
0	638	140.251400006951	1
0	640	140.350566673618	0
0	642	140.627189208194	1
0	644	140.635709004316	2
0	647	140.734875670983	0
0	649	141.760446900243	1
0	651	141.85961356691	0
0	653	142.606605310921	1
0	655	142.705771977588	0
0	657	147.487175561294	1
0	659	147.586342227961	0
0	661	147.848699736646	1
0	663	147.947866403313	0
0	665	148.808981951499	1
0	667	148.908148618166	0
0	669	150.580774779839	1
0	671	150.602370517284	2
0	674	150.701537183951	0
0	676	151.83624930466	1
0	678	151.935415971327	0
0	680	152.597646577458	1
0	682	152.696813244125	0
0	684	153.096307330536	1
0	686	153.12207235412	2
0	689	153.221239020787	0
0	691	153.628373346459	1
0	693	153.727540013126	0
0	695	155.50612839049	1
0	697	155.605295057157	0
0	699	158.27299403347	1
0	701	158.372160700137	0
0	703	161.99871349883	1
0	705	162.097880165497	0
0	707	162.708422933336	1
0	709	162.807589600003	0
0	711	163.597628840325	1
0	713	163.696795506992	0
0	715	163.919574732362	1
0	717	164.018741399029	0
0	719	164.089060786232	1
0	721	164.188227452899	0
0	723	164.818157080968	1
0	725	164.917323747635	0
0	727	165.745657835858	1
0	729	165.844824502525	0
0	731	166.114245315775	1
0	733	166.213411982442	0
0	735	166.726700523346	1
0	737	166.825867190013	0
0	739	167.041385150003	1
0	741	167.14055181667	0
0	743	167.95267991382	1
0	745	168.051846580487	0
0	747	168.332433030081	1
0	749	168.431599696748	0
0	751	168.612797137279	1
0	753	168.711963803946	0
0	755	169.246028226171	1
0	757	169.345194892838	0
0	759	169.5148920756	1
0	761	169.614058742267	0
0	763	170.514359334873	1
0	765	170.546393916443	2
0	768	170.64556058311	0
0	770	170.955222827278	1
0	772	171.003756245507	2
0	775	171.102922912174	0
0	777	171.807385175293	1
0	779	171.90655184196	0
0	781	172.563842289684	1
0	783	172.663008956351	0
0	785	173.598211596318	1
0	787	173.697378262985	0
0	789	173.745007212983	1
0	791	173.84417387965	0
0	793	174.234848787484	1
0	795	174.334015454151	0
0	797	174.610618655143	1
0	799	174.70978532181	0
0	801	176.371447327744	1
0	803	176.470613994411	0
0	805	177.015603594004	1
0	807	177.114770260671	0
0	809	177.281765770324	1
0	811	177.380932436991	0
0	813	178.23601920641	1
0	815	178.302977851069	2
0	818	178.402144517736	0
0	820	179.959455770868	1
0	822	180.058622437535	0
0	824	180.64577073935	1
0	826	180.744937406017	0
0	828	182.609791420126	1
0	830	182.708958086793	0
0	832	185.632031514759	1
0	834	185.731198181426	0
0	836	186.685187133702	1
0	838	186.784353800369	0
0	840	186.903950520546	1
0	842	186.923812904845	2
0	845	187.022979571512	0
0	847	187.07894908402	1
0	849	187.080612810712	2
0	852	187.179779477379	0
0	854	189.19784045671	1
0	856	189.297007123377	0
0	858	189.496531883405	1
0	860	189.595698550072	0
0	862	190.113443086505	1
0	864	190.212609753172	0
0	866	190.343395476191	1
0	868	190.442562142858	0
0	870	190.974127725304	1
0	872	191.073294391971	0
0	874	191.575151732194	1
0	876	191.674318398861	0
0	878	192.137712575274	1
0	880	192.236879241941	0
0	882	195.790813838272	1
0	884	195.889980504939	0
0	886	199.613454125929	1
0	888	199.712620792596	0
0	890	200.235180038866	1
0	892	200.334346705533	0
0	894	202.442663186808	1
0	896	202.541829853475	0
0	898	202.580985292136	1
0	900	202.680151958803	0
0	902	202.934541279773	1
0	904	203.03370794644	0
0	906	203.364306878033	1
0	908	203.4634735447	0
0	910	204.090067468375	1
0	912	204.189234135042	0
0	914	204.208378038014	1
0	916	204.307544704681	0
0	918	204.396921115309	1
0	920	204.496087781976	0
0	922	205.359487508629	1
0	924	205.458654175296	0
0	926	206.897618845233	1
0	928	206.9967855119	0
0	930	208.064032328624	1
0	932	208.163198995291	0
0	934	208.189860873775	1
0	936	208.289027540442	0
0	938	211.066052352941	1
0	940	211.165219019608	0
0	942	211.700081303486	1
0	944	211.799247970153	0
0	946	213.137758188677	1
0	948	213.236924855344	0
0	950	214.097347177997	1
0	952	214.196513844664	0
0	954	214.607375050686	1
0	956	214.706541717353	0
0	958	216.601568440796	1
0	960	216.700735107463	0
0	962	216.999536692363	1
0	964	217.09870335903	0
0	966	217.196618649892	1
0	968	217.295785316559	0
0	970	217.427387249769	1
0	972	217.526553916436	0
0	974	217.762234421737	1
0	976	217.861401088404	0
0	978	219.023632328629	1
0	980	219.122798995296	0
0	982	220.852572487081	1
0	984	220.951739153748	0
0	986	221.228593015481	1
0	988	221.327759682148	0
0	990	221.364326704093	1
0	992	221.46349337076	0
0	994	221.712129381653	1
0	996	221.81129604832	0
0	998	223.571988234688	1
0	1000	223.671154901355	0
0	1002	225.840286296051	1
0	1004	225.939452962718	0
0	1006	226.278622745555	1
0	1008	226.337635457833	2
0	1011	226.4368021245	0
0	1013	227.445529047306	1
0	1015	227.493668209986	2
0	1017	227.522989401859	2
0	1021	227.622156068526	0
0	1023	229.344509990459	1
0	1025	229.443676657126	0
0	1027	229.8798944424	1
0	1029	229.904340006472	2
0	1032	230.003506673139	0
0	1034	230.602470380825	1
0	1036	230.701637047492	0
0	1038	231.321580628192	1
0	1040	231.420747294859	0
0	1042	232.216416086846	1
0	1044	232.315582753513	0
0	1046	232.668025340893	1
0	1048	232.714175498608	2
0	1051	232.813342165275	0
0	1053	232.833128096027	1
0	1055	232.932294762694	0
0	1057	233.256026190384	1
0	1059	233.355192857051	0
0	1061	235.282957233961	1
0	1063	235.382123900628	0
0	1065	236.8345584528	1
0	1067	236.933725119467	0
0	1069	237.165198928884	1
0	1071	237.264365595551	0
0	1073	237.71072962193	1
0	1075	237.809896288597	0
0	1077	239.385710137982	1
0	1079	239.484876804649	0
0	1081	239.775001370314	1
0	1083	239.874168036981	0
0	1085	240.770673454507	1
0	1087	240.869840121174	0
0	1089	241.234305289156	1
0	1091	241.333471955823	0
0	1093	242.085636546283	1
0	1095	242.18480321295	0
0	1097	242.460418922622	1
0	1099	242.559585589289	0
0	1101	243.623947729875	1
0	1103	243.723114396542	0
0	1105	244.414245292533	1
0	1107	244.5134119592	0
0	1109	244.8974883268	1
0	1111	244.996654993467	0
0	1113	245.029257515117	1
0	1115	245.128424181784	0
0	1117	246.256887249068	1
0	1119	246.356053915735	0
0	1121	247.018818605469	1
0	1123	247.117985272136	0
0	1125	247.305181673208	1
0	1127	247.404348339875	0
0	1129	248.505019702001	1
0	1131	248.604186368668	0
0	1133	249.340086923096	1
0	1135	249.439253589763	0
0	1137	249.953138752447	1
0	1139	250.052305419114	0
0	1141	250.727787804602	1
0	1143	250.826954471269	0
0	1145	251.111476862725	1
0	1147	251.210643529392	0
0	1149	251.88551136316	1
0	1151	251.984678029827	0
0	1153	252.272478890594	1
0	1155	252.371645557261	0
0	1157	254.224313273454	1
0	1159	254.323479940121	0
0	1161	256.123306140407	1
0	1163	256.222472807074	0
0	1165	257.948659813514	1
0	1167	258.047826480181	0
0	1169	259.238265659375	1
0	1171	259.337432326042	0
0	1173	263.101078133183	1
0	1175	263.20024479985	0
0	1177	264.142168149507	1
0	1179	264.241334816174	0
0	1181	265.365110923709	1
0	1183	265.464277590376	0
0	1185	266.926637111942	1
0	1187	267.025803778609	0
0	1189	268.563115831731	1
0	1191	268.662282498398	0
0	1193	269.31530024999	1
0	1195	269.414466916657	0
0	1197	270.248750525281	1
0	1199	270.347917191948	0
0	1201	273.669060032252	1
0	1203	273.768226698919	0
0	1205	274.516763113824	1
0	1207	274.615929780491	0
0	1209	276.426591756021	1
0	1211	276.525758422688	0
0	1213	276.863528440107	1
0	1215	276.900161441346	2
0	1218	276.999328108013	0
0	1220	277.051743138028	1
0	1222	277.150909804695	0
0	1224	279.482737099866	1
0	1226	279.581903766533	0
0	1228	282.078078871926	1
0	1230	282.177245538593	0
0	1232	283.455443596354	1
0	1234	283.554610263021	0
0	1236	283.636908747269	1
0	1238	283.736075413936	0
0	1240	284.851357711764	1
0	1242	284.950524378431	0
0	1244	287.472118645511	1
0	1246	287.571285312178	0
0	1248	287.694960931166	1
0	1250	287.794127597833	0
0	1252	290.463063581684	1
0	1254	290.562230248351	0
0	1256	291.096007668423	1
0	1258	291.19517433509	0
0	1260	291.233371932507	1
0	1262	291.332538599174	0
0	1264	292.3505252888	1
0	1266	292.449691955467	0
0	1268	292.69620141958	1
0	1270	292.795368086247	0
0	1272	294.251763029866	1
0	1274	294.350929696533	0
0	1276	294.353586047875	1
0	1278	294.452752714542	0
0	1280	294.51770937585	1
0	1282	294.616876042517	0
0	1284	296.000210732981	1
0	1286	296.099377399648	0
0	1288	297.657076042794	1
0	1290	297.71251906887	2
0	1293	297.811685735537	0
0	1295	298.250009085888	1
0	1297	298.349175752555	0
0	1299	299.632216117357	1
0	1301	299.731382784024	0
0	1303	301.183839912669	1
0	1305	301.283006579336	0
0	1307	301.698313699243	1
0	1309	301.772414235435	2
0	1312	301.871580902102	0
0	1314	302.455082807638	1
0	1316	302.554249474305	0
0	1318	302.752829723901	1
0	1320	302.851996390568	0
0	1322	302.943994460332	1
0	1324	303.043161126999	0
0	1326	304.658587359202	1
0	1328	304.757754025869	0
0	1330	304.819282733191	1
0	1332	304.918449399858	0
0	1334	307.035295751182	1
0	1336	307.134462417849	0
0	1338	309.395442882609	1
0	1340	309.494609549276	0
0	1342	311.100104255877	1
0	1344	311.199270922544	0
0	1346	312.854537222922	1
0	1348	312.953703889589	0
0	1350	313.139916235966	1
0	1352	313.239082902633	0
0	1354	313.330666017653	1
0	1356	313.42983268432	0
0	1358	313.716566398387	1
0	1360	313.815733065054	0
0	1362	314.276160706117	1
0	1364	314.314697561555	2
0	1367	314.413864228222	0
0	1369	315.167677141072	1
0	1371	315.266843807739	0
0	1373	316.372174892486	1
0	1375	316.435519537596	2
0	1378	316.534686204263	0
0	1380	316.75176676295	1
0	1382	316.850933429617	0
0	1384	317.773159026019	1
0	1386	317.872325692686	0
0	1388	318.477959696815	1
0	1390	318.577126363482	0
0	1392	318.58473908448	1
0	1394	318.683905751147	0
0	1396	318.749313503488	1
0	1398	318.848480170155	0
0	1400	321.177596214869	1
0	1402	321.276762881536	0
0	1404	322.495374480133	1
0	1406	322.5945411468	0
0	1408	323.561276793321	1
0	1410	323.660443459988	0
0	1412	324.012226715071	1
0	1414	324.061738375701	2
0	1417	324.160905042368	0
0	1419	325.161068596928	1
0	1421	325.260235263595	0
0	1423	327.317323071345	1
0	1425	327.416489738012	0
0	1427	329.051479467894	1
0	1429	329.065652805799	2
0	1432	329.164819472466	0
0	1434	330.824195322906	1
0	1436	330.923361989573	0
0	1438	331.016855886725	1
0	1440	331.116022553392	0
0	1442	331.782960987029	1
0	1444	331.882127653696	0
0	1446	332.463130195535	1
0	1448	332.562296862202	0
0	1450	332.823921312603	1
0	1452	332.92308797927	0
0	1454	333.557040819903	1
0	1456	333.65620748657	0
0	1458	333.965937623062	1
0	1460	334.065104289729	0
0	1462	334.275739252433	1
0	1464	334.3749059191	0
0	1466	335.941205591882	1
0	1468	336.040372258549	0
0	1470	336.97824502044	1
0	1472	337.023739104471	2
0	1475	337.122905771138	0
0	1477	337.423252391031	1
0	1479	337.522419057698	0
0	1481	337.676018197678	1
0	1483	337.775184864345	0
0	1485	338.153030959049	1
0	1487	338.252197625716	0
0	1489	338.352395795695	1
0	1491	338.451562462362	0
0	1493	339.108833266124	1
0	1495	339.207999932791	0
0	1497	339.34647826712	1
0	1499	339.445644933787	0
0	1501	339.494971215325	1
0	1503	339.594137881992	0
0	1505	339.746481067754	1
0	1507	339.845647734421	0
0	1509	343.862691340065	1
0	1511	343.961858006732	0
0	1513	345.356182556736	1
0	1515	345.455349223403	0
0	1517	345.764278753187	1
0	1519	345.863445419854	0
0	1521	349.448490923542	1
0	1523	349.542254544189	2
0	1526	349.641421210856	0
0	1528	351.77805417684	1
0	1530	351.825945198097	2
0	1533	351.925111864764	0
0	1535	353.549543512704	1
0	1537	353.648710179371	0
0	1539	355.66221519537	1
0	1541	355.761381862037	0
0	1543	356.53981863949	1
0	1545	356.638985306157	0
0	1547	358.221299776806	1
0	1549	358.320466443473	0
0	1551	359.407479833298	1
0	1553	359.506646499965	0
0	1555	360.033904608209	1
0	1557	360.133071274876	0
0	1559	366.522577513697	1
0	1561	366.621744180364	0
0	1563	367.541116763124	1
0	1565	367.640283429791	0
0	1567	368.031925847445	1
0	1569	368.131092514112	0
0	1571	368.570518833831	1
0	1573	368.669685500498	0
0	1575	368.687430418457	1
0	1577	368.786597085124	0
0	1579	369.872052626123	1
0	1581	369.942113932625	2
0	1584	370.041280599292	0
0	1586	370.241091805164	1
0	1588	370.29467905572	2
0	1591	370.393845722387	0
0	1593	372.584211455108	1
0	1595	372.683378121775	0
0	1597	373.121546911155	1
0	1599	373.220713577822	0
0	1601	373.485677246903	1
0	1603	373.526864717915	2
0	1606	373.626031384582	0
0	1608	373.781406533947	1
0	1610	373.880573200614	0
0	1612	374.660828205368	1
0	1614	374.759994872035	0
0	1616	375.214125000078	1
0	1618	375.313291666745	0
0	1620	376.302022075405	1
0	1622	376.401188742072	0
0	1624	377.70871252314	1
0	1626	377.807879189807	0
0	1628	379.110065609969	1
0	1630	379.209232276636	0
0	1632	379.336800359048	1
0	1634	379.435967025715	0
0	1636	379.611681187477	1
0	1638	379.710847854144	0
0	1640	380.026987930087	1
0	1642	380.126154596754	0
0	1644	382.138180014308	1
0	1646	382.237346680975	0
0	1648	382.611550528905	1
0	1650	382.710717195572	0
0	1652	383.099681494777	1
0	1654	383.198848161444	0
0	1656	385.914679766427	1
0	1658	386.013846433094	0
0	1660	388.335992480336	1
0	1662	388.435159147003	0
0	1664	388.6189189529	1
0	1666	388.718085619567	0
0	1668	389.098194066089	1
0	1670	389.197360732756	0
0	1672	390.822384581604	1
0	1674	390.921551248271	0
0	1676	391.588708073218	1
0	1678	391.687874739885	0
0	1680	392.528665960238	1
0	1682	392.627832626905	0
0	1684	393.489159653772	1
0	1686	393.588326320439	0
0	1688	393.605288264406	1
0	1690	393.704454931073	0
0	1692	393.923269904348	1
0	1694	394.022436571015	0
0	1696	394.817228183925	1
0	1698	394.916394850592	0
0	1700	395.212669430132	1
0	1702	395.311836096799	0
0	1704	395.354528010314	1
0	1706	395.453694676981	0
0	1708	395.836690906098	1
0	1710	395.931298244407	2
0	1713	396.030464911074	0
0	1715	396.433021210747	1
0	1717	396.532187877414	0
0	1719	396.994017577117	1
0	1721	397.093184243784	0
0	1723	398.897275901491	1
0	1725	398.96786358823	2
0	1728	399.067030254897	0
0	1730	399.75364889785	1
0	1732	399.852815564517	0
0	1734	401.365562573785	1
0	1736	401.464729240452	0
0	1738	402.561043649348	1
0	1740	402.660210316015	0
0	1742	402.937920630439	1
0	1744	403.037087297106	0
0	1746	404.186193389303	1
0	1748	404.28536005597	0
0	1750	406.151699182693	1
0	1752	406.152146263901	2
0	1755	406.251312930568	0
0	1757	406.735465164811	1
0	1759	406.834631831478	0
0	1761	409.303585775432	1
0	1763	409.402752442099	0
0	1765	409.715802495812	1
0	1767	409.814969162479	0
0	1769	410.172646363538	1
0	1771	410.271813030205	0
0	1773	411.028812204859	1
0	1775	411.127978871526	0
0	1777	411.393710351811	1
0	1779	411.492877018478	0
0	1781	412.160982852274	1
0	1783	412.260149518941	0
0	1785	412.824973425013	1
0	1787	412.92414009168	0
0	1789	412.996209394639	1
0	1791	413.095376061306	0
0	1793	413.331401525191	1
0	1795	413.430568191858	0
0	1797	413.645875907301	1
0	1799	413.745042573968	0
0	1801	416.982078303614	1
0	1803	417.081244970281	0
0	1805	417.866593841448	1
0	1807	417.965760508115	0
0	1809	418.099834870125	1
0	1811	418.193793993486	2
0	1814	418.292960660153	0
0	1816	418.360499020736	1
0	1818	418.459665687403	0
0	1820	419.218981398947	1
0	1822	419.318148065614	0
0	1824	419.568460683857	1
0	1826	419.667627350524	0
0	1828	419.77132501974	1
0	1830	419.870491686407	0
0	1832	421.130057622624	1
0	1834	421.229224289291	0
0	1836	421.432672359332	1
0	1838	421.521867450144	2
0	1841	421.534871262111	2
0	1844	421.634037928778	0
0	1846	422.400705976449	1
0	1848	422.499872643116	0
0	1850	422.685386198795	1
0	1852	422.784552865462	0
0	1854	422.851082001628	1
0	1856	422.891752876121	2
0	1859	422.990919542788	0
0	1861	424.65735153715	1
0	1863	424.756518203817	0
0	1865	424.968919584415	1
0	1867	425.068086251082	0
0	1869	426.246464048041	1
0	1871	426.345630714708	0
0	1873	426.647824749242	1
0	1875	426.746991415909	0
0	1877	426.888302478909	1
0	1879	426.987469145576	0
0	1881	427.6983820021	1
0	1883	427.797548668767	0
0	1885	428.324345410309	1
0	1887	428.423512076976	0
0	1889	429.459810902169	1
0	1891	429.558977568836	0
0	1893	430.045961881813	1
0	1895	430.14512854848	0
0	1897	430.147040375679	1
0	1899	430.246207042346	0
0	1901	430.851427476168	1
0	1903	430.950594142835	0
0	1905	431.401386629207	1
0	1907	431.500553295874	0
0	1909	431.674368998846	1
0	1911	431.773535665513	0
0	1913	433.124349417561	1
0	1915	433.223516084228	0
0	1917	435.288725992061	1
0	1919	435.387892658728	0
0	1921	435.422256942984	1
0	1923	435.521423609651	0
0	1925	435.890711231012	1
0	1927	435.989877897679	0
0	1929	438.182484004759	1
0	1931	438.281650671426	0
0	1933	438.677938344003	1
0	1935	438.77710501067	0
0	1937	438.781546862187	1
0	1939	438.880713528854	0
0	1941	439.381242940362	1
0	1943	439.480409607029	0
0	1945	439.83941827403	1
0	1947	439.938584940697	0
0	1949	440.26902134704	1
0	1951	440.368188013707	0
0	1953	440.471901896942	1
0	1955	440.571068563609	0
0	1957	443.090245934692	1
0	1959	443.189412601359	0
0	1961	443.397472356586	1
0	1963	443.496639023253	0
0	1965	444.079119528203	1
0	1967	444.17828619487	0
0	1969	445.099683202493	1
0	1971	445.19884986916	0
0	1973	447.43691583643	1
0	1975	447.536082503097	0
0	1977	447.804949443465	1
0	1979	447.904116110132	0
0	1981	448.026859315072	1
0	1983	448.126025981739	0
0	1985	449.413443718124	1
0	1987	449.512610384791	0
0	1989	449.693156535511	1
0	1991	449.792323202178	0
0	1993	451.119463396929	1
0	1995	451.218630063596	0
0	1997	451.24763163695	1
0	1999	451.346798303617	0
0	2001	453.265295943883	1
0	2003	453.36446261055	0
0	2005	454.63858963469	1
0	2007	454.737756301357	0
0	2009	456.117048848866	1
0	2011	456.216215515533	0
0	2013	458.026413237803	1
0	2015	458.12557990447	0
0	2017	458.597772203055	1
0	2019	458.696938869722	0
0	2021	462.082427913895	1
0	2023	462.125548637039	2
0	2025	462.142662863956	2
0	2029	462.241829530623	0
0	2031	462.837396239728	1
0	2033	462.936562906395	0
0	2035	463.014542819186	1
0	2037	463.113709485853	0
0	2039	464.631221080959	1
0	2041	464.699491127615	2
0	2044	464.798657794282	0
0	2046	465.10982134148	1
0	2048	465.149804296201	2
0	2051	465.248970962868	0
0	2053	466.966423177698	1
0	2055	467.065589844365	0
0	2057	467.38287965766	1
0	2059	467.482046324327	0
0	2061	470.160117115982	1
0	2063	470.259283782649	0
0	2065	470.405902971017	1
0	2067	470.505069637684	0
0	2069	470.794640735699	1
0	2071	470.893807402366	0
0	2073	471.619366718648	1
0	2075	471.718533385315	0
0	2077	472.10840905486	1
0	2079	472.207575721527	0
0	2081	474.572009129578	1
0	2083	474.671175796245	0
0	2085	477.038787212678	1
0	2087	477.137953879345	0
0	2089	477.455674403088	1
0	2091	477.497831362709	2
0	2094	477.596998029376	0
0	2096	478.334172535292	1
0	2098	478.395511144299	2
0	2101	478.494677810966	0
0	2103	478.508847374742	1
0	2105	478.608014041409	0
0	2107	479.292576115283	1
0	2109	479.39174278195	0
0	2111	480.264847480679	1
0	2113	480.272664584897	2
0	2116	480.371831251564	0
0	2118	481.299080411859	1
0	2120	481.398247078526	0
0	2122	481.790200741311	1
0	2124	481.889367407978	0
0	2126	483.789165634712	1
0	2128	483.888022426628	2
0	2131	483.987189093295	0
0	2133	485.071437455058	1
0	2135	485.170604121725	0
0	2137	485.581729248856	1
0	2139	485.680895915523	0
0	2141	485.929442692099	1
0	2143	486.028609358766	0
0	2145	486.260769212842	1
0	2147	486.359935879509	0
0	2149	486.501073571441	1
0	2151	486.533215348258	2
0	2154	486.632382014925	0
0	2156	486.87518738958	1
0	2158	486.974354056247	0
0	2160	487.109036334498	1
0	2162	487.208203001165	0
0	2164	487.896645118185	1
0	2166	487.995811784852	0
0	2168	488.733381610103	1
0	2170	488.83254827677	0
0	2172	490.531215903051	1
0	2174	490.630382569718	0
0	2176	490.841642161217	1
0	2178	490.940808827884	0
0	2180	491.961577085026	1
0	2182	492.060743751693	0
0	2184	493.762946142724	1
0	2186	493.862112809391	0
0	2188	495.428862408148	1
0	2190	495.528029074815	0
0	2192	495.838626176041	1
0	2194	495.937792842708	0
0	2196	496.112745140072	1
0	2198	496.211911806739	0
0	2200	496.59084624209	1
0	2202	496.690012908757	0
0	2204	496.769179549234	1
0	2206	496.868346215901	0
0	2208	497.22409894282	1
0	2210	497.323265609487	0
0	2212	497.619673207744	1
0	2214	497.718839874411	0
0	2216	498.206619962823	1
0	2218	498.222294085297	2