version 3
run PureAlohaExperiment-23-20260306-12:10:19-8840
attr configname PureAlohaExperiment
attr datetime 20260306-12:10:19
attr datetimef 20260306-121019
attr experiment PureAlohaExperiment
attr inifile omnetpp.ini
attr iterationvars "$numHosts=15, $iaMean=5"
attr iterationvarsd numHosts=15/iaMean=5
attr iterationvarsf numHosts=15,iaMean=5-
attr measurement "$numHosts=15, $iaMean=5"
attr network Aloha
attr processid 8840
attr repetition 1
attr replication #1
attr resultdir results
attr runnumber 23
attr seedset 23
itervar iaMean 5
itervar numHosts 15
config description "Channel utilization in the function of packet generation frequency"
config repeat 2
config sim-time-limit 90min
config Aloha.numHosts 15
config Aloha.host[*].iaTime exponential(5s)
config network Aloha
config Aloha.numHosts 20
config Aloha.slotTime 0s
config Aloha.txRate 9.6kbps
config Aloha.host[*].pkLenBits 952b
config **.x "uniform(0m, 1000m)"
config **.y "uniform(0m, 1000m)"
config **.animationHoldTimeOnCollision 0s
config **.idleAnimationSpeed 1
config **.transmissionEdgeAnimationSpeed 1e-6
config **.midTransmissionAnimationSpeed 1e-1

vector 0 Aloha.server serverChannelState:vector ETV
attr enum IDLE=0,TRANSMISSION=1,COLLISION=2
attr recordingmode vector
attr source channelState
attr title "Channel state"
vector 1 Aloha.host[0] radioState:vector ETV
attr enum IDLE=0,TRANSMIT=1
attr recordingmode vector
attr source state
attr title "Radio state"
vector 2 Aloha.host[1] radioState:vector ETV
attr enum IDLE=0,TRANSMIT=1
attr recordingmode vector
attr source state
attr title "Radio state"
vector 3 Aloha.host[2] radioState:vector ETV
attr enum IDLE=0,TRANSMIT=1
attr recordingmode vector
attr source state
attr title "Radio state"
vector 4 Aloha.host[3] radioState:vector ETV
attr enum IDLE=0,TRANSMIT=1
attr recordingmode vector
attr source state
attr title "Radio state"
vector 5 Aloha.host[4] radioState:vector ETV
attr enum IDLE=0,TRANSMIT=1
attr recordingmode vector
attr source state
attr title "Radio state"
vector 6 Aloha.host[5] radioState:vector ETV
attr enum IDLE=0,TRANSMIT=1
attr recordingmode vector
attr source state
attr title "Radio state"
vector 7 Aloha.host[6] radioState:vector ETV
attr enum IDLE=0,TRANSMIT=1
attr recordingmode vector
attr source state
attr title "Radio state"
vector 8 Aloha.host[7] radioState:vector ETV
attr enum IDLE=0,TRANSMIT=1
attr recordingmode vector
attr source state
attr title "Radio state"
vector 9 Aloha.host[8] radioState:vector ETV
attr enum IDLE=0,TRANSMIT=1
attr recordingmode vector
attr source state
attr title "Radio state"
vector 10 Aloha.host[9] radioState:vector ETV
attr enum IDLE=0,TRANSMIT=1
attr recordingmode vector
attr source state
attr title "Radio state"
vector 11 Aloha.host[10] radioState:vector ETV
attr enum IDLE=0,TRANSMIT=1
attr recordingmode vector
attr source state
attr title "Radio state"
vector 12 Aloha.host[11] radioState:vector ETV
attr enum IDLE=0,TRANSMIT=1
attr recordingmode vector
attr source state
attr title "Radio state"
vector 13 Aloha.host[12] radioState:vector ETV
attr enum IDLE=0,TRANSMIT=1
attr recordingmode vector
attr source state
attr title "Radio state"
vector 14 Aloha.host[13] radioState:vector ETV
attr enum IDLE=0,TRANSMIT=1
attr recordingmode vector
attr source state
attr title "Radio state"
vector 15 Aloha.host[14] radioState:vector ETV
attr enum IDLE=0,TRANSMIT=1
attr recordingmode vector
attr source state
attr title "Radio state"
vector 16 Aloha.server channelUtilizationVector:vector ETV
attr interpolationmode linear
attr recordingmode vector
attr source timeavg(receive)
attr title "channel utilization evolution"
0	0	0	0
0	2	0.002646295458	1
0	4	0.101812962125	0
0	6	0.336448038154	1
0	8	0.435614704821	0
0	10	0.585354818765	1
0	12	0.684521485432	0
0	14	1.629344040673	1
0	16	1.697928005082	2
0	19	1.745977119572	2
0	22	1.845143786239	0
0	24	2.479197070617	1
0	26	2.491358107147	2
0	28	2.512148595185	2
0	32	2.611315261852	0
0	34	2.989354203144	1
0	36	3.088520869811	0
0	38	3.265537883188	1
0	40	3.364704549855	0
0	42	4.32393893842	1
0	44	4.423105605087	0
0	46	4.582561765148	1
0	48	4.681728431815	0
0	50	4.717507690154	1
0	52	4.816674356821	0
0	54	4.919946659279	1
0	56	5.019113325946	0
0	58	5.445911177524	1
0	60	5.500499385779	2
0	63	5.599666052446	0
0	65	6.819860298336	1
0	67	6.919026965003	0
0	69	6.984343576694	1
0	71	7.055545165399	2
0	74	7.135498411716	2
0	77	7.22145043628	2
0	80	7.320617102947	0
0	82	7.553801968473	1
0	84	7.65296863514	0
0	86	7.861842057458	1
0	88	7.961008724125	0
0	90	8.015527030325	1
0	92	8.114693696992	0
0	94	8.364532996276	1
0	96	8.463699662943	0
0	98	8.642976176511	1
0	100	8.742142843178	0
0	102	9.071059291283	1
0	104	9.17022595795	0
0	106	9.32468036776	1
0	108	9.423847034427	0
0	110	10.129833378887	1
0	112	10.229000045554	0
0	114	10.843242542018	1
0	116	10.942409208685	0
0	118	11.112760366685	1
0	120	11.211927033352	0
0	122	11.691170666872	1
0	124	11.790337333539	0
0	126	11.871692614934	1
0	128	11.970859281601	0
0	130	12.291930027016	1
0	132	12.391096693683	0
0	134	12.873480129861	1
0	136	12.890173628078	2
0	138	12.96416537963	2
0	142	13.063332046297	0
0	144	13.142562406154	1
0	146	13.241729072821	0
0	148	13.28136581678	1
0	150	13.380532483447	0
0	152	13.639871679097	1
0	154	13.739038345764	0
0	156	13.805217372408	1
0	158	13.904384039075	0
0	160	14.536575670193	1
0	162	14.63574233686	0
0	164	14.686527372924	1
0	166	14.785694039591	0
0	168	14.885962765711	1
0	170	14.973980188774	2
0	173	15.073146855441	0
0	175	15.182019207284	1
0	177	15.281185873951	0
0	179	15.283304082582	1
0	181	15.382470749249	0
0	183	15.397158632495	1
0	185	15.496325299162	0
0	187	16.161718746148	1
0	189	16.260885412815	0
0	191	16.410418282249	1
0	193	16.509584948916	0
0	195	17.213792842564	1
0	197	17.312959509231	0
0	199	17.359058838167	1
0	201	17.458225504834	0
0	203	17.459443381297	1
0	205	17.558610047964	0
0	207	17.610198723534	1
0	209	17.709365390201	0
0	211	17.891859945241	1
0	213	17.909552961547	2
0	216	18.008719628214	0
0	218	18.396654444812	1
0	220	18.495821111479	0
0	222	18.594999872426	1
0	224	18.599798665942	2
0	227	18.698965332609	0
0	229	19.559981161565	1
0	231	19.659147828232	0
0	233	19.797031307532	1
0	235	19.864266130493	2
0	238	19.96343279716	0
0	240	20.086497952224	1
0	242	20.185664618891	0
0	244	20.400197310206	1
0	246	20.499363976873	0
0	248	20.597442076188	1
0	250	20.696608742855	0
0	252	21.015692475364	1
0	254	21.114859142031	0
0	256	21.214940842896	1
0	258	21.314107509563	0
0	260	21.397543968247	1
0	262	21.496710634914	0
0	264	21.514690002811	1
0	266	21.613856669478	0
0	268	22.411784968906	1
0	270	22.510951635573	0
0	272	23.831186607001	1
0	274	23.930353273668	0
0	276	24.718104611766	1
0	278	24.794544536171	2
0	281	24.893711202838	0
0	283	25.170774722588	1
0	285	25.245309059072	2
0	288	25.344475725739	0
0	290	26.03540692077	1
0	292	26.134573587437	0
0	294	27.08933687915	1
0	296	27.188503545817	0
0	298	27.492018321674	1
0	300	27.591184988341	0
0	302	27.874000986146	1
0	304	27.973167652813	0
0	306	28.245468505043	1
0	308	28.34463517171	0
0	310	28.432186282455	1
0	312	28.531352949122	0
0	314	28.654940139925	1
0	316	28.754106806592	0
0	318	29.060214173255	1
0	320	29.152293514397	2
0	323	29.251460181064	0
0	325	29.311241844291	1
0	327	29.410408510958	0
0	329	29.584346586239	1
0	331	29.683513252906	0
0	333	29.959897690977	1
0	335	30.005452343109	2
0	338	30.104619009776	0
0	340	30.26293705765	1
0	342	30.362103724317	0
0	344	30.413282956473	1
0	346	30.51244962314	0
0	348	30.883141875921	1
0	350	30.982308542588	0
0	352	31.872931574907	1
0	354	31.972098241574	0
0	356	32.350356293148	1
0	358	32.449522959815	0
0	360	32.760874961133	1
0	362	32.8600416278	0
0	364	32.901311806134	1
0	366	32.914494386169	2
0	369	33.013661052836	0
0	371	33.050569436378	1
0	373	33.083738784619	2
0	376	33.182905451286	0
0	378	33.316744327778	1
0	380	33.415910994445	0
0	382	33.557005685144	1
0	384	33.656172351811	0
0	386	34.605291858829	1
0	388	34.704458525496	0
0	390	35.238878152564	1
0	392	35.338044819231	0
0	394	35.666455432924	1
0	396	35.765622099591	0
0	398	36.435334326241	1
0	400	36.534500992908	0
0	402	37.010539888476	1
0	404	37.109706555143	0
0	406	37.395588121335	1
0	408	37.494754788002	0
0	410	37.545541340792	1
0	412	37.644708007459	0
0	414	37.918399339551	1
0	416	38.017566006218	0
0	418	38.82337957518	1
0	420	38.922546241847	0
0	422	38.970128143093	1
0	424	39.06929480976	0
0	426	39.196397148519	1
0	428	39.295563815186	0
0	430	39.597524443361	1
0	432	39.696691110028	0
0	434	39.970221917117	1
0	436	40.069388583784	0
0	438	40.641156624377	1
0	440	40.740323291044	0
0	442	40.749323600862	1
0	444	40.848490267529	0
0	446	41.041800282041	1
0	448	41.140966948708	0
0	450	41.51841384737	1
0	452	41.617580514037	0
0	454	41.928314588283	1
0	456	42.02748125495	0
0	458	42.104134448972	1
0	460	42.203301115639	0
0	462	42.471683645142	1
0	464	42.570850311809	0
0	466	42.868091001976	1
0	468	42.880824976615	2
0	471	42.979991643282	0
0	473	42.984446782606	1
0	475	43.05375393513	2
0	478	43.152920601797	0
0	480	43.272874262628	1
0	482	43.372040929295	0
0	484	43.386465549436	1
0	486	43.485632216103	0
0	488	43.699024183446	1
0	490	43.798190850113	0
0	492	44.299393948061	1
0	494	44.398560614728	0
0	496	44.475037834352	1
0	498	44.574204501019	0
0	500	45.212394821121	1
0	502	45.311561487788	0
0	504	46.577198634865	1
0	506	46.62293006899	2
0	509	46.722096735657	0
0	511	46.789370315245	1
0	513	46.873250122743	2
0	516	46.97241678941	0
0	518	47.220021784364	1
0	520	47.235170828712	2
0	522	47.248713105156	2
0	526	47.347879771823	0
0	528	47.734765130523	1
0	530	47.83393179719	0
0	532	48.081705287724	1
0	534	48.180871954391	0
0	536	48.333183831427	1
0	538	48.432350498094	0
0	540	49.657468707076	1
0	542	49.756635373743	0
0	544	49.817511065856	1
0	546	49.916677732523	0
0	548	50.394234525557	1
0	550	50.493401192224	0
0	552	50.525646450243	1
0	554	50.62481311691	0
0	556	50.983521143799	1
0	558	51.082687810466	0
0	560	51.090030255528	1
0	562	51.189196922195	0
0	564	51.208701699686	1
0	566	51.307868366353	0
0	568	51.321448177238	1
0	570	51.420614843905	0
0	572	51.875070608733	1
0	574	51.9742372754	0
0	576	52.010273964277	1
0	578	52.109440630944	0
0	580	52.408266366836	1
0	582	52.507433033503	0
0	584	52.616588296612	1
0	586	52.715754963279	0
0	588	52.793520812942	1
0	590	52.847994266001	2
0	593	52.947160932668	0
0	595	53.196234945171	1
0	597	53.295401611838	0
0	599	53.977861941875	1
0	601	54.02067459193	2
0	603	54.031549368021	2
0	607	54.130716034688	0
0	609	54.840141964605	1
0	611	54.939308631272	0
0	613	55.344568922767	1
0	615	55.36957561857	2
0	618	55.468742285237	0
0	620	55.493222387457	1
0	622	55.493930228998	2
0	625	55.593096895665	0
0	627	56.096899423832	1
0	629	56.196066090499	0
0	631	56.244945820786	1
0	633	56.283052376573	2
0	636	56.38221904324	0
0	638	56.692111336833	1
0	640	56.739887086298	2
0	643	56.839053752965	0
0	645	56.996834029224	1
0	647	57.096000695891	0
0	649	57.496099991156	1
0	651	57.593556288854	2
0	653	57.594988081464	2
0	657	57.694154748131	0
0	659	57.724458709718	1
0	661	57.823625376385	0
0	663	57.881386904075	1
0	665	57.980553570742	0
0	667	57.989652316005	1
0	669	58.04923462807	2
0	672	58.148401294737	0
0	674	58.3596268638	1
0	676	58.458793530467	0
0	678	59.167792918384	1
0	680	59.266959585051	0
0	682	59.303269425559	1
0	684	59.402436092226	0
0	686	59.441565513082	1
0	688	59.540732179749	0
0	690	59.858623978176	1
0	692	59.957790644843	0
0	694	60.110244309911	1
0	696	60.209410976578	0
0	698	60.689820509851	1
0	700	60.788987176518	0
0	702	61.235853086991	1
0	704	61.335019753658	0
0	706	61.431487071219	1
0	708	61.45994424036	2
0	711	61.559110907027	0
0	713	61.701263036214	1
0	715	61.800429702881	0
0	717	62.004730179657	1
0	719	62.103896846324	0
0	721	62.475132410344	1
0	723	62.503815894376	2
0	725	62.536966548161	2
0	729	62.636133214828	0
0	731	63.054754850902	1
0	733	63.153921517569	0
0	735	63.449348052465	1
0	737	63.548514719132	0
0	739	63.571095628925	1
0	741	63.670262295592	0
0	743	63.758463423679	1
0	745	63.857630090346	0
0	747	64.292675856914	1
0	749	64.391842523581	0
0	751	64.582874198883	1
0	753	64.607596057452	2
0	756	64.706762724119	0
0	758	64.937921954208	1
0	760	64.941281588475	2
0	763	65.040448255142	0
0	765	65.211849420788	1
0	767	65.311016087455	0
0	769	65.529527195113	1
0	771	65.62869386178	0
0	773	66.38985479163	1
0	775	66.489021458297	0
0	777	66.555711620039	1
0	779	66.654878286706	0
0	781	66.660454904121	1
0	783	66.759621570788	0
0	785	67.107358789415	1
0	787	67.206525456082	0
0	789	67.299545774148	1
0	791	67.398712440815	0
0	793	67.561560258153	1
0	795	67.66072692482	0
0	797	67.711710910481	1
0	799	67.810877577148	0
0	801	68.552941370305	1
0	803	68.648304156565	2
0	806	68.747470823232	0
0	808	69.026050815392	1
0	810	69.125217482059	0
0	812	69.323454956696	1
0	814	69.422621623363	0
0	816	69.490901689428	1
0	818	69.590068356095	0
0	820	69.616042801283	1
0	822	69.68329914471	2
0	824	69.713299477859	2
0	828	69.812466144526	0
0	830	70.47224165371	1
0	832	70.571408320377	0
0	834	70.573377940374	1
0	836	70.672544607041	0
0	838	70.816406138275	1
0	840	70.915572804942	0
0	842	71.121077248719	1
0	844	71.220243915386	0
0	846	71.596992974887	1
0	848	71.696159641554	0
0	850	71.729770615721	1
0	852	71.805812553613	2
0	855	71.90497922028	0
0	857	71.947225188729	1
0	859	72.046391855396	0
0	861	72.141740905278	1
0	863	72.19341486455	2
0	866	72.292581531217	0
0	868	72.348528394954	1
0	870	72.447695061621	0
0	872	72.449060185131	1
0	874	72.548226851798	0
0	876	72.7298174486	1
0	878	72.802195380875	2
0	881	72.83856161939	2
0	884	72.937728286057	0
0	886	73.074214081111	1
0	888	73.100235631365	2
0	890	73.126285783952	2
0	892	73.172039861125	2
0	897	73.271206527792	0
0	899	73.825901979169	1
0	901	73.925068645836	0
0	903	74.319260085378	1
0	905	74.327677781998	2
0	908	74.426844448665	0
0	910	74.437064318172	1
0	912	74.536230984839	0
0	914	74.647172236277	1
0	916	74.746338902944	0
0	918	74.928885156886	1
0	920	75.028051823553	0
0	922	76.238044090819	1
0	924	76.337210757486	0
0	926	76.522358794719	1
0	928	76.585712756517	2
0	931	76.684879423184	0
0	933	76.98685401435	1
0	935	77.086020681017	0
0	937	77.235618306032	1
0	939	77.334784972699	0
0	941	77.708898936201	1
0	943	77.808065602868	0
0	945	78.107979232623	1
0	947	78.20714589929	0
0	949	78.905919591528	1
0	951	79.005086258195	0
0	953	79.050510020556	1
0	955	79.149676687223	0
0	957	79.348340372986	1
0	959	79.447507039653	0
0	961	79.703768236692	1
0	963	79.802934903359	0
0	965	82.007600830424	1
0	967	82.106767497091	0
0	969	82.914847859638	1
0	971	83.014014526305	0
0	973	83.444941809166	1
0	975	83.544108475833	0
0	977	83.745136753548	1
0	979	83.770463938409	2
0	982	83.869630605076	0
0	984	84.773968314525	1
0	986	84.873134981192	0
0	988	84.883067365249	1
0	990	84.924842697268	2
0	993	85.024009363935	0
0	995	85.11486404042	1
0	997	85.214030707087	0
0	999	85.387766949105	1
0	1001	85.445605596285	2
0	1004	85.544772262952	0
0	1006	86.106354402718	1
0	1008	86.205521069385	0
0	1010	86.50075268474	1
0	1012	86.599919351407	0
0	1014	86.799531765038	1
0	1016	86.809591138992	2
0	1019	86.908757805659	0
0	1021	87.191188179414	1
0	1023	87.290354846081	0
0	1025	87.307876661996	1
0	1027	87.407043328663	0
0	1029	88.596614427314	1
0	1031	88.630769156672	2
0	1033	88.688716187049	2
0	1037	88.787882853716	0
0	1039	88.914121971737	1
0	1041	89.013288638404	0
0	1043	89.418675166178	1
0	1045	89.517841832845	0
0	1047	89.549084767526	1
0	1049	89.648251434193	0
0	1051	90.477021200444	1
0	1053	90.52180014464	2
0	1056	90.620966811307	0
0	1058	91.298499891068	1
0	1060	91.382010760387	2
0	1063	91.481177427054	0
0	1065	91.636507017469	1
0	1067	91.735673684136	0
0	1069	91.752913959712	1
0	1071	91.77249704515	2
0	1074	91.871663711817	0
0	1076	92.034859500964	1
0	1078	92.134026167631	0
0	1080	92.202247856975	1
0	1082	92.264152932621	2
0	1085	92.363319599288	0
0	1087	92.493588887913	1
0	1089	92.59275555458	0
0	1091	94.485882854505	1
0	1093	94.585049521172	0
0	1095	94.623779488366	1
0	1097	94.722946155033	0
0	1099	95.277097783422	1
0	1101	95.352109447147	2
0	1104	95.451276113814	0
0	1106	96.245458704773	1
0	1108	96.34462537144	0
0	1110	96.43475435974	1
0	1112	96.46215891521	2
0	1115	96.561325581877	0
0	1117	96.791014017705	1
0	1119	96.888835487164	2
0	1122	96.957039881331	2
0	1125	97.056206547998	0
0	1127	97.317926010354	1
0	1129	97.417092677021	0
0	1131	97.692454934158	1
0	1133	97.791621600825	0
0	1135	97.977455108335	1
0	1137	98.029217145942	2
0	1140	98.128383812609	0
0	1142	98.220228029695	1
0	1144	98.25502421431	2
0	1146	98.280710727781	2
0	1150	98.379877394448	0
0	1152	98.419780100139	1
0	1154	98.435377697291	2
0	1157	98.534544363958	0
0	1159	98.553968716533	1
0	1161	98.6531353832	0
0	1163	99.243606135264	1
0	1165	99.281318944662	2
0	1168	99.380485611329	0
0	1170	99.4488649472	1
0	1172	99.548031613867	0
0	1174	100.096287088495	1
0	1176	100.195453755162	0
0	1178	100.460441980124	1
0	1180	100.559608646791	0
0	1182	100.758684384001	1
0	1184	100.857851050668	0
0	1186	101.180990441455	1
0	1188	101.280157108122	0
0	1190	101.607163590119	1
0	1192	101.629774289712	2
0	1195	101.728940956379	0
0	1197	102.395874797463	1
0	1199	102.49504146413	0
0	1201	103.320701801979	1
0	1203	103.419868468646	0
0	1205	103.464390162523	1
0	1207	103.56355682919	0
0	1209	104.156802081476	1
0	1211	104.255968748143	0
0	1213	104.261353087232	1
0	1215	104.360519753899	0
0	1217	104.427622656546	1
0	1219	104.526789323213	0
0	1221	105.29693688724	1
0	1223	105.368266526439	2
0	1226	105.442392619608	2
0	1229	105.498317742351	2
0	1232	105.597484409018	0
0	1234	105.973939995048	1
0	1236	106.030592488177	2
0	1238	106.034527025859	2
0	1242	106.133693692526	0
0	1244	106.199109462314	1
0	1246	106.298276128981	0
0	1248	106.802153603998	1
0	1250	106.901320270665	0
0	1252	107.438305740951	1
0	1254	107.537472407618	0
0	1256	107.545959883613	1
0	1258	107.64512655028	0
0	1260	107.791106959297	1
0	1262	107.890273625964	0
0	1264	108.127589722069	1
0	1266	108.226756388736	0
0	1268	108.355872363095	1
0	1270	108.455039029762	0
0	1272	108.799988521715	1
0	1274	108.899155188382	0
0	1276	108.99380517756	1
0	1278	109.092971844227	0
0	1280	110.090417519548	1
0	1282	110.189584186215	0
0	1284	110.776145164782	1
0	1286	110.779142776117	2
0	1289	110.878309442784	0
0	1291	111.019093346063	1
0	1293	111.11826001273	0
0	1295	111.124684331713	1
0	1297	111.197092827798	2
0	1300	111.246206690944	2
0	1303	111.345373357611	0
0	1305	111.822298327587	1
0	1307	111.921464994254	0
0	1309	113.73079100906	1
0	1311	113.829957675727	0
0	1313	114.079114299073	1
0	1315	114.085962853749	2
0	1318	114.185129520416	0
0	1320	114.486168038813	1
0	1322	114.500090838961	2
0	1325	114.599257505628	0
0	1327	115.262512549873	1
0	1329	115.287681875663	2
0	1332	115.38684854233	0
0	1334	115.737991581465	1
0	1336	115.837158248132	0
0	1338	115.881311744528	1
0	1340	115.980478411195	0
0	1342	116.216027905024	1
0	1344	116.315194571691	0
0	1346	117.228628358255	1
0	1348	117.327795024922	0
0	1350	117.577187176158	1
0	1352	117.676353842825	0
0	1354	117.976110193996	1
0	1356	118.075276860663	0
0	1358	118.276812599863	1
0	1360	118.37597926653	0
0	1362	118.933844489936	1
0	1364	118.941729764234	2
0	1367	119.040896430901	0
0	1369	120.417920406674	1
0	1371	120.517087073341	0
0	1373	120.577323548602	1
0	1375	120.676490215269	0
0	1377	121.695962742954	1
0	1379	121.795129409621	0
0	1381	122.130701974525	1
0	1383	122.180680694147	2
0	1386	122.279847360814	0
0	1388	122.36965344042	1
0	1390	122.468820107087	0
0	1392	122.613374878082	1
0	1394	122.712541544749	0
0	1396	122.927927013228	1
0	1398	122.982574972093	2
0	1401	123.08174163876	0
0	1403	123.200651167436	1
0	1405	123.299817834103	0
0	1407	123.312857550741	1
0	1409	123.412024217408	0
0	1411	123.518200128896	1
0	1413	123.617366795563	0
0	1415	123.669577682958	1
0	1417	123.768744349625	0
0	1419	124.733615149445	1
0	1421	124.832781816112	0
0	1423	125.173558574526	1
0	1425	125.272725241193	0
0	1427	125.614178843281	1
0	1429	125.694886328968	2
0	1432	125.794052995635	0
0	1434	126.192060967875	1
0	1436	126.291227634542	0
0	1438	126.367534348156	1
0	1440	126.466701014823	0
0	1442	126.86501618972	1
0	1444	126.924948009255	2
0	1447	127.024114675922	0
0	1449	127.67626264232	1
0	1451	127.775429308987	0
0	1453	128.339366565334	1
0	1455	128.438533232001	0
0	1457	128.642245916722	1
0	1459	128.665079295356	2
0	1462	128.764245962023	0
0	1464	128.949546586336	1
0	1466	129.048713253003	0
0	1468	129.139933759808	1
0	1470	129.235380721356	2
0	1473	129.334547388023	0
0	1475	129.33743427906	1
0	1477	129.436600945727	0
0	1479	129.53502890655	1
0	1481	129.634195573217	0
0	1483	129.826413368186	1
0	1485	129.925580034853	0
0	1487	131.023698324147	1
0	1489	131.112410587148	2
0	1492	131.211577253815	0
0	1494	131.344372616391	1
0	1496	131.443539283058	0
0	1498	131.889263029788	1
0	1500	131.988429696455	0
0	1502	132.248853839013	1
0	1504	132.347601961245	2
0	1507	132.41850196673	2
0	1509	132.424699845314	2
0	1513	132.523866511981	0
0	1515	132.600703615141	1
0	1517	132.662601347112	2
0	1519	132.683893751374	2
0	1522	132.724100622022	2
0	1526	132.823267288689	0
0	1528	133.882013277955	1
0	1530	133.981179944622	0
0	1532	134.127688142253	1
0	1534	134.22685480892	0
0	1536	134.783184614689	1
0	1538	134.857953729407	2
0	1541	134.957120396074	0
0	1543	135.098354532161	1
0	1545	135.197521198828	0
0	1547	135.244535744601	1
0	1549	135.343702411268	0
0	1551	135.400869156653	1
0	1553	135.446167614231	2
0	1555	135.466950679953	2
0	1559	135.56611734662	0
0	1561	136.842402985234	1
0	1563	136.941569651901	0
0	1565	137.787446974845	1
0	1567	137.886613641512	0
0	1569	138.164498497586	1
0	1571	138.173015855463	2
0	1574	138.27218252213	0
0	1576	138.694481282325	1
0	1578	138.793647948992	0
0	1580	138.837472689722	1
0	1582	138.936639356389	0
0	1584	139.418685187097	1
0	1586	139.477747596475	2
0	1589	139.576914263142	0
0	1591	140.090347355259	1
0	1593	140.145815334134	2
0	1596	140.216831337362	2
0	1599	140.315998004029	0
0	1601	140.369458024879	1
0	1603	140.468624691546	0
0	1605	140.46894232974	1
0	1607	140.568108996407	0
0	1609	140.761108308516	1
0	1611	140.860274975183	0
0	1613	140.99402541924	1
0	1615	141.093192085907	0
0	1617	141.331846638725	1
0	1619	141.431013305392	0
0	1621	141.925564737104	1
0	1623	142.022323982239	2
0	1626	142.074392711983	2
0	1629	142.17355937865	0
0	1631	142.813435736527	1
0	1633	142.912602403194	0
0	1635	143.080622961254	1
0	1637	143.179789627921	0
0	1639	144.263148760395	1
0	1641	144.362315427062	0
0	1643	144.586588042462	1
0	1645	144.685754709129	0
0	1647	144.725233290471	1
0	1649	144.824399957138	0
0	1651	144.944476820006	1
0	1653	145.043643486673	0
0	1655	145.130173227922	1
0	1657	145.229339894589	0
0	1659	146.281630049898	1
0	1661	146.380796716565	0
0	1663	146.844814947723	1
0	1665	146.94398161439	0
0	1667	147.334386762546	1
0	1669	147.433553429213	0
0	1671	147.446484142259	1
0	1673	147.545650808926	0
0	1675	147.904884863897	1
0	1677	148.004051530564	0
0	1679	148.339521621831	1
0	1681	148.438688288498	0
0	1683	148.615531735351	1
0	1685	148.714698402018	0
0	1687	148.730115338681	1
0	1689	148.829282005348	0
0	1691	149.578880029719	1
0	1693	149.678046696386	0
0	1695	150.794130511518	1
0	1697	150.810632518625	2
0	1700	150.909799185292	0
0	1702	151.263535374636	1
0	1704	151.362702041303	0
0	1706	151.548165229774	1
0	1708	151.647331896441	0
0	1710	151.737994572603	1
0	1712	151.83716123927	0
0	1714	152.071630684222	1
0	1716	152.170797350889	0
0	1718	152.614394239629	1
0	1720	152.713560906296	0
0	1722	153.532017035093	1
0	1724	153.63118370176	0
0	1726	154.370182122557	1
0	1728	154.447037555131	2
0	1731	154.502783410379	2
0	1734	154.601950077046	0
0	1736	154.677323041541	1
0	1738	154.776489708208	0
0	1740	154.778289621808	1
0	1742	154.877456288475	0
0	1744	155.084331927967	1
0	1746	155.183498594634	0
0	1748	155.295361983547	1
0	1750	155.394528650214	0
0	1752	155.941229856978	1
0	1754	155.99608454666	2
0	1757	156.095251213327	0
0	1759	156.178451032517	1
0	1761	156.255529660343	2
0	1764	156.35469632701	0
0	1766	156.419896566359	1
0	1768	156.519063233026	0
0	1770	156.747999185662	1
0	1772	156.847165852329	0
0	1774	157.671799530781	1
0	1776	157.770966197448	0
0	1778	158.015337210602	1
0	1780	158.114503877269	0
0	1782	158.311711305022	1
0	1784	158.410877971689	0
0	1786	158.466138466826	1
0	1788	158.565305133493	0
0	1790	158.589354171079	1
0	1792	158.688520837746	0
0	1794	159.020865791674	1
0	1796	159.022284272661	2
0	1799	159.121450939328	0
0	1801	159.210081365429	1
0	1803	159.238188923779	2
0	1806	159.337355590446	0
0	1808	160.39922481429	1
0	1810	160.498391480957	0
0	1812	160.519147246488	1
0	1814	160.618313913155	0
0	1816	160.923661590227	1
0	1818	160.975886296938	2
0	1821	161.075052963605	0
0	1823	161.582918804742	1
0	1825	161.682085471409	0
0	1827	161.766051849154	1
0	1829	161.849448790312	2
0	1832	161.948615456979	0
0	1834	161.962117789031	1
0	1836	162.061284455698	0
0	1838	162.851273877937	1
0	1840	162.950440544604	0
0	1842	163.400750156128	1
0	1844	163.499916822795	0
0	1846	164.21986631007	1
0	1848	164.319032976737	0
0	1850	164.887741498437	1
0	1852	164.922708718418	2
0	1855	165.021875385085	0
0	1857	165.130037718154	1
0	1859	165.229204384821	0
0	1861	165.601823823783	1
0	1863	165.612228223622	2
0	1866	165.711394890289	0
0	1868	165.765698713844	1
0	1870	165.864865380511	0
0	1872	166.057020054993	1
0	1874	166.148682106068	2
0	1877	166.190299282997	2
0	1880	166.289465949664	0
0	1882	166.351966564056	1
0	1884	166.451133230723	0
0	1886	167.413870183334	1
0	1888	167.513036850001	0
0	1890	167.967852895506	1
0	1892	167.969841982126	2
0	1895	168.069008648793	0
0	1897	168.18275564087	1
0	1899	168.281922307537	0
0	1901	168.472883933613	1
0	1903	168.57205060028	0
0	1905	168.611838104012	1
0	1907	168.711004770679	0
0	1909	169.568542534981	1
0	1911	169.617890752637	2
0	1914	169.717057419304	0
0	1916	169.778799771698	1
0	1918	169.877966438365	0
0	1920	169.980221278371	1
0	1922	170.079387945038	0
0	1924	170.132343420268	1
0	1926	170.231510086935	0
0	1928	170.243047954666	1
0	1930	170.342214621333	0
0	1932	170.981659620006	1
0	1934	171.080826286673	0
0	1936	172.229970735429	1
0	1938	172.28456265621	2
0	1941	172.336818601656	2
0	1944	172.435985268323	0
0	1946	173.855456310639	1
0	1948	173.954622977306	0
0	1950	174.08067516557	1
0	1952	174.179841832237	0
0	1954	174.201230163119	1
0	1956	174.300396829786	0
0	1958	174.753996073966	1
0	1960	174.853162740633	0
0	1962	175.452263332195	1
0	1964	175.551429998862	0
0	1966	175.707048760425	1
0	1968	175.806215427092	0
0	1970	176.062396235924	1
0	1972	176.161562902591	0
0	1974	176.244492238794	1
0	1976	176.343658905461	0
0	1978	177.140810846163	1
0	1980	177.211315823911	2
0	1983	177.310482490578	0
0	1985	177.348954681819	1
0	1987	177.448121348486	0
0	1989	178.199696245048	1
0	1991	178.219306747432	2
0	1994	178.318473414099	0
0	1996	178.687987936392	1
0	1998	178.787154603059	0
0	2000	179.038216781626	1
0	2002	179.137383448293	0
0	2004	179.522756455632	1
0	2006	179.621923122299	0
0	2008	179.689596491306	1
0	2010	179.788763157973	0
0	2012	180.077781913235	1
0	2014	180.176948579902	0
0	2016	180.606541858454	1
0	2018	180.649753488473	2
0	2021	180.74892015514	0
0	2023	180.848071543298	1
0	2025	180.923346492785	2
0	2028	181.022513159452	0
0	2030	181.075531690898	1
0	2032	181.174698357565	0
0	2034	182.384775972363	1
0	2036	182.48394263903	0
0	2038	183.234625059472	1
0	2040	183.333791726139	0
0	2042	183.451435699005	1
0	2044	183.550602365672	0
0	2046	184.538814164706	1
0	2048	184.637980831373	0
0	2050	184.972075186677	1
0	2052	185.071241853344	0
0	2054	185.143229357683	1
0	2056	185.24239602435	0
0	2058	185.370493372739	1
0	2060	185.428824797115	2
0	2063	185.527991463782	0
0	2065	186.082465245012	1
0	2067	186.181631911679	0
0	2069	186.920837565347	1
0	2071	186.968583487956	2
0	2074	187.067750154623	0
0	2076	187.814748842128	1
0	2078	187.850016221918	2
0	2081	187.941440909721	2
0	2084	188.040607576388	0
0	2086	188.263672934307	1
0	2088	188.362839600974	0
0	2090	188.711347336295	1
0	2092	188.810514002962	0
0	2094	189.010432675071	1
0	2096	189.109599341738	0
0	2098	189.346141443159	1
0	2100	189.445308109826	0
0	2102	190.008026066969	1
0	2104	190.107192733636	0
0	2106	190.227757534128	1
0	2108	190.326924200795	0
0	2110	190.844831767034	1
0	2112	190.906272884863	2
0	2115	191.00543955153	0
0	2117	191.059119180058	1
0	2119	191.158285846725	0
0	2121	191.341474723455	1
0	2123	191.440641390122	0
0	2125	191.538901298907	1
0	2127	191.638067965574	0
0	2129	191.645710997593	1
0	2131	191.667922249209	2
0	2134	191.767088915876	0
0	2136	191.858106310186	1
0	2138	191.898125565885	2
0	2141	191.997292232552	0
0	2143	192.173846538409	1
0	2145	192.273013205076	0
0	2147	192.374965502532	1
0	2149	192.408782660433	2
0	2151	192.451520556497	2
0	2155	192.550687223164	0
0	2157	192.968388835392	1
0	2159	192.972449734997	2
0	2162	193.071616401664	0
0	2164	193.943394762108	1
0	2166	194.042561428775	0
0	2168	194.129994228258	1
0	2170	194.210582229925	2
0	2172	194.211328682155	2
0	2176	194.310495348822	0
0	2178	194.41387780528	1
0	2180	194.513044471947	0
0	2182	194.602548358635	1
0	2184	194.652548891039	2
0	2186	194.666307099214	2
0	2190	194.765473765881	0
0	2192	195.334258143488	1
0	2194	195.433424810155	0
0	2196	195.871176585496	1
0	2198	195.970343252163	0
0	2200	196.137198126741	1
0	2202	196.236364793408	0
0	2204	196.396680244142	1
0	2206	196.495846910809	0
0	2208	196.960367101063	1
0	2210	197.05953376773	0
0	2212	197.430909798666	1
0	2214	197.530076465333	0
0	2216	197.801359665128	1
0	2218	197.900526331795	0
0	2220	198.007789838608	1
0	2222	198.106956505275	0
0	2224	198.58337387561	1
0	2226	198.682540542277	0
0	2228	198.684523826877	1
0	2230	198.783690493544	0
0	2232	198.951714210522	1
0	2234	199.050880877189	0
0	2236	199.51559124748	1
0	2238	199.614757914147	0
0	2240	200.212446266372	1
0	2242	200.311612933039	0
0	2244	200.359473312609	1
0	2246	200.373576138159	2
0	2249	200.472742804826	0
0	2251	200.575889902144	1
0	2253	200.675056568811	0
0	2255	201.187420351024	1
0	2257	201.286587017691	0
0	2259	201.318660890397	1
0	2261	201.417827557064	0
0	2263	201.455349929939	1