version 3
run PureAlohaExperiment-27-20260306-12:10:20-8840
attr configname PureAlohaExperiment
attr datetime 20260306-12:10:20
attr datetimef 20260306-121020
attr experiment PureAlohaExperiment
attr inifile omnetpp.ini
attr iterationvars "$numHosts=15, $iaMean=9"
attr iterationvarsd numHosts=15/iaMean=9
attr iterationvarsf numHosts=15,iaMean=9-
attr measurement "$numHosts=15, $iaMean=9"
attr network Aloha
attr processid 8840
attr repetition 1
attr replication #1
attr resultdir results
attr runnumber 27
attr seedset 27
itervar iaMean 9
itervar numHosts 15
config description "Channel utilization in the function of packet generation frequency"
config repeat 2
config sim-time-limit 90min
config Aloha.numHosts 15
config Aloha.host[*].iaTime exponential(9s)
config network Aloha
config Aloha.numHosts 20
config Aloha.slotTime 0s
config Aloha.txRate 9.6kbps
config Aloha.host[*].pkLenBits 952b
config **.x "uniform(0m, 1000m)"
config **.y "uniform(0m, 1000m)"
config **.animationHoldTimeOnCollision 0s
config **.idleAnimationSpeed 1
config **.transmissionEdgeAnimationSpeed 1e-6
config **.midTransmissionAnimationSpeed 1e-1

vector 0 Aloha.server serverChannelState:vector ETV
attr enum IDLE=0,TRANSMISSION=1,COLLISION=2
attr recordingmode vector
attr source channelState
attr title "Channel state"
vector 1 Aloha.host[0] radioState:vector ETV
attr enum IDLE=0,TRANSMIT=1
attr recordingmode vector
attr source state
attr title "Radio state"
vector 2 Aloha.host[1] radioState:vector ETV
attr enum IDLE=0,TRANSMIT=1
attr recordingmode vector
attr source state
attr title "Radio state"
vector 3 Aloha.host[2] radioState:vector ETV
attr enum IDLE=0,TRANSMIT=1
attr recordingmode vector
attr source state
attr title "Radio state"
vector 4 Aloha.host[3] radioState:vector ETV
attr enum IDLE=0,TRANSMIT=1
attr recordingmode vector
attr source state
attr title "Radio state"
vector 5 Aloha.host[4] radioState:vector ETV
attr enum IDLE=0,TRANSMIT=1
attr recordingmode vector
attr source state
attr title "Radio state"
vector 6 Aloha.host[5] radioState:vector ETV
attr enum IDLE=0,TRANSMIT=1
attr recordingmode vector
attr source state
attr title "Radio state"
vector 7 Aloha.host[6] radioState:vector ETV
attr enum IDLE=0,TRANSMIT=1
attr recordingmode vector
attr source state
attr title "Radio state"
vector 8 Aloha.host[7] radioState:vector ETV
attr enum IDLE=0,TRANSMIT=1
attr recordingmode vector
attr source state
attr title "Radio state"
vector 9 Aloha.host[8] radioState:vector ETV
attr enum IDLE=0,TRANSMIT=1
attr recordingmode vector
attr source state
attr title "Radio state"
vector 10 Aloha.host[9] radioState:vector ETV
attr enum IDLE=0,TRANSMIT=1
attr recordingmode vector
attr source state
attr title "Radio state"
vector 11 Aloha.host[10] radioState:vector ETV
attr enum IDLE=0,TRANSMIT=1
attr recordingmode vector
attr source state
attr title "Radio state"
vector 12 Aloha.host[11] radioState:vector ETV
attr enum IDLE=0,TRANSMIT=1
attr recordingmode vector
attr source state
attr title "Radio state"
vector 13 Aloha.host[12] radioState:vector ETV
attr enum IDLE=0,TRANSMIT=1
attr recordingmode vector
attr source state
attr title "Radio state"
vector 14 Aloha.host[13] radioState:vector ETV
attr enum IDLE=0,TRANSMIT=1
attr recordingmode vector
attr source state
attr title "Radio state"
vector 15 Aloha.host[14] radioState:vector ETV
attr enum IDLE=0,TRANSMIT=1
attr recordingmode vector
attr source state
attr title "Radio state"
vector 16 Aloha.server channelUtilizationVector:vector ETV
attr interpolationmode linear
attr recordingmode vector
attr source timeavg(receive)
attr title "channel utilization evolution"
0	0	0	0
0	2	0.004894206831	1
0	4	0.104060873498	0
0	6	0.761879458074	1
0	8	0.861046124741	0
0	10	1.473905976127	1
0	12	1.520390606947	2
0	15	1.600373508583	2
0	18	1.674931632825	2
0	20	1.676345672217	2
0	24	1.775512338884	0
0	26	2.073055245403	1
0	28	2.17222191207	0
0	30	2.464595301617	1
0	32	2.563761968284	0
0	34	3.276863708823	1
0	36	3.37603037549	0
0	38	3.5709179471	1
0	40	3.633929081097	2
0	43	3.733095747764	0
0	45	4.004060266883	1
0	47	4.10322693355	0
0	49	4.200382646063	1
0	51	4.29954931273	0
0	53	6.543275987471	1
0	55	6.642442654138	0
0	57	7.506170639188	1
0	59	7.605337305855	0
0	61	8.205378257828	1
0	63	8.304544924495	0
0	65	8.673363915445	1
0	67	8.772530582112	0
0	69	8.868595107602	1
0	71	8.967761774269	0
0	73	9.211727289713	1
0	75	9.31089395638	0
0	77	10.201024457343	1
0	79	10.219097853142	2
0	82	10.318264519809	0
0	84	10.394509543309	1
0	86	10.493676209976	0
0	88	10.942841348117	1
0	90	11.00033436413	2
0	93	11.099501030797	0
0	95	12.487505005344	1
0	97	12.586671672011	0
0	99	13.762750359219	1
0	101	13.861917025886	0
0	103	14.02599004887	1
0	105	14.125156715537	0
0	107	14.206384455483	1
0	109	14.30555112215	0
0	111	15.524512653292	1
0	113	15.623679319959	0
0	115	16.174704454452	1
0	117	16.273871121119	0
0	119	16.335428248816	1
0	121	16.434594915483	0
0	123	16.868472199925	1
0	125	16.967638866592	0
0	127	17.559327999818	1
0	129	17.658494666485	0
0	131	18.697970577247	1
0	133	18.797137243914	0
0	135	19.05498099098	1
0	137	19.154147657647	0
0	139	19.242967512671	1
0	141	19.342134179338	0
0	143	20.444476577248	1
0	145	20.543643243915	0
0	147	21.416424299913	1
0	149	21.51559096658	0
0	151	21.745623267616	1
0	153	21.844789934283	0
0	155	21.968299009597	1
0	157	22.067465676264	0
0	159	22.249316319122	1
0	161	22.302476444945	2
0	164	22.401643111612	0
0	166	24.701138685569	1
0	168	24.800305352236	0
0	170	25.79923792574	1
0	172	25.812770762118	2
0	174	25.830101843558	2
0	178	25.929268510225	0
0	180	26.794463721497	1
0	182	26.893630388164	0
0	184	27.033127763116	1
0	186	27.132294429783	0
0	188	27.918364685097	1
0	190	28.017531351764	0
0	192	28.267052098322	1
0	194	28.366218764989	0
0	196	29.885172955184	1
0	198	29.984339621851	0
0	200	31.298240324163	1
0	202	31.39740699083	0
0	204	31.42297738614	1
0	206	31.522144052807	0
0	208	31.9366789723	1
0	210	32.035845638967	0
0	212	33.102996992695	1
0	214	33.202163659362	0
0	216	34.284573942461	1
0	218	34.383740609128	0
0	220	34.426125571167	1
0	222	34.525292237834	0
0	224	34.581173208586	1
0	226	34.680339875253	0
0	228	36.366445653088	1
0	230	36.465612319755	0
0	232	36.85389968099	1
0	234	36.886343206001	2
0	237	36.985509872668	0
0	239	38.165809341026	1
0	241	38.264976007693	0
0	243	38.670670321814	1
0	245	38.769836988481	0
0	247	39.025745626055	1
0	249	39.124912292722	0
0	251	39.862068624141	1
0	253	39.961235290808	0
0	255	40.955627025072	1
0	257	41.054793691739	0
0	259	41.136500839052	1
0	261	41.235667505719	0
0	263	41.326262206215	1
0	265	41.425428872882	0
0	267	42.772714254583	1
0	269	42.87188092125	0
0	271	43.570846411082	1
0	273	43.670013077749	0
0	275	43.997762360496	1
0	277	44.096929027163	0
0	279	44.816362744263	1
0	281	44.91552941093	0
0	283	44.929309214193	1
0	285	45.02847588086	0
0	287	46.222964920956	1
0	289	46.322131587623	0
0	291	46.963811971862	1
0	293	47.011076294439	2
0	296	47.110242961106	0
0	298	47.613813322103	1
0	300	47.71297998877	0
0	302	48.123066672881	1
0	304	48.215163255839	2
0	307	48.314329922506	0
0	309	48.415673765548	1
0	311	48.449344325539	2
0	314	48.548510992206	0
0	316	49.223445884277	1
0	318	49.322612550944	0
0	320	49.481802331026	1
0	322	49.580968997693	0
0	324	52.908488199248	1
0	326	53.007654865915	0
0	328	53.096331063308	1
0	330	53.195497729975	0
0	332	53.667105247858	1
0	334	53.766271914525	0
0	336	54.149884560507	1
0	338	54.249051227174	0
0	340	55.352554543606	1
0	342	55.451721210273	0
0	344	56.483135252648	1
0	346	56.582301919315	0
0	348	56.738993682227	1
0	350	56.838160348894	0
0	352	58.686655261922	1
0	354	58.785821928589	0
0	356	59.985908170097	1
0	358	60.085074836764	0
0	360	60.165609090447	1
0	362	60.264775757114	0
0	364	62.043977665566	1
0	366	62.142410624494	2
0	369	62.230315198666	2
0	372	62.329481865333	0
0	374	62.742125068741	1
0	376	62.841291735408	0
0	378	63.034422343206	1
0	380	63.133589009873	0
0	382	63.236543778283	1
0	384	63.33571044495	0
0	386	68.190065656491	1
0	388	68.289232323158	0
0	390	68.323486245494	1
0	392	68.422652912161	0
0	394	68.473688479556	1
0	396	68.572855146223	0
0	398	69.482139493436	1
0	400	69.581306160103	0
0	402	70.203348308023	1
0	404	70.30251497469	0
0	406	71.645381962684	1
0	408	71.744548629351	0
0	410	71.881374761051	1
0	412	71.980541427718	0
0	414	72.062577893577	1
0	416	72.161744560244	0
0	418	72.904746782569	1
0	420	73.003913449236	0
0	422	74.109320170313	1
0	424	74.20848683698	0
0	426	74.920704841803	1
0	428	75.01987150847	0
0	430	75.254859744878	1
0	432	75.354026411545	0
0	434	75.832521210116	1
0	436	75.931687876783	0
0	438	76.333720431729	1
0	440	76.432887098396	0
0	442	76.657955759622	1
0	444	76.757122426289	0
0	446	77.470036612616	1
0	448	77.569203279283	0
0	450	77.839323599105	1
0	452	77.938490265772	0
0	454	78.755911187836	1
0	456	78.817505653726	2
0	459	78.916672320393	0
0	461	79.09751897283	1
0	463	79.196685639497	0
0	465	80.797329216914	1
0	467	80.896495883581	0
0	469	80.963424452335	1
0	471	81.042231950478	2
0	474	81.141398617145	0
0	476	81.43787559546	1
0	478	81.537042262127	0
0	480	81.666105083072	1
0	482	81.765271749739	0
0	484	81.781339203382	1
0	486	81.880505870049	0
0	488	82.840122469428	1
0	490	82.939289136095	0
0	492	83.457122897154	1
0	494	83.462308434504	2
0	497	83.561475101171	0
0	499	83.571193088668	1
0	501	83.670359755335	0
0	503	84.059651772739	1
0	505	84.158818439406	0
0	507	84.677675853116	1
0	509	84.776842519783	0
0	511	85.731715798832	1
0	513	85.830882465499	0
0	515	85.890375078697	1
0	517	85.921386731616	2
0	520	86.007201397722	2
0	523	86.106368064389	0
0	525	86.602351648142	1
0	527	86.701518314809	0
0	529	87.294091290357	1
0	531	87.393257957024	0
0	533	87.717793330776	1
0	535	87.816959997443	0
0	537	88.101699902016	1
0	539	88.200866568683	0
0	541	88.214599643435	1
0	543	88.313766310102	0
0	545	89.110852877937	1
0	547	89.210019544604	0
0	549	89.525448042393	1
0	551	89.62461470906	0
0	553	89.859944977199	1
0	555	89.959111643866	0
0	557	89.999202149973	1
0	559	90.09836881664	0
0	561	90.612427268442	1
0	563	90.711593935109	0
0	565	91.277617187399	1
0	567	91.376783854066	0
0	569	91.780275734737	1
0	571	91.879442401404	0
0	573	94.024266183608	1
0	575	94.123432850275	0
0	577	94.389514607625	1
0	579	94.488681274292	0
0	581	95.499525120558	1
0	583	95.598691787225	0
0	585	96.248627096139	1
0	587	96.347793762806	0
0	589	97.483349832088	1
0	591	97.582516498755	0
0	593	98.313053456566	1
0	595	98.412220123233	0
0	597	99.045512409929	1
0	599	99.144679076596	0
0	601	100.852785229962	1
0	603	100.951951896629	0
0	605	101.198500767409	1
0	607	101.297667434076	0
0	609	101.313316320021	1
0	611	101.412482986688	0
0	613	102.357682278957	1
0	615	102.456848945624	0
0	617	104.560345235614	1
0	619	104.659511902281	0
0	621	105.428216602545	1
0	623	105.527383269212	0
0	625	105.61866304779	1
0	627	105.717829714457	0
0	629	106.678452788082	1
0	631	106.777619454749	0
0	633	107.293837067185	1
0	635	107.393003733852	0
0	637	107.777884456476	1
0	639	107.877051123143	0
0	641	108.055224645407	1
0	643	108.154391312074	0
0	645	108.232596009686	1
0	647	108.331762676353	0
0	649	109.409464060815	1
0	651	109.508630727482	0
0	653	109.812273074987	1
0	655	109.911439741654	0
0	657	110.180690195981	1
0	659	110.279856862648	0
0	661	110.49604504496	1
0	663	110.595211711627	0
0	665	111.266538053864	1
0	667	111.365704720531	0
0	669	112.03815577563	1
0	671	112.137322442297	0
0	673	112.766396686051	1
0	675	112.865563352718	0
0	677	113.099462242621	1
0	679	113.198628909288	0
0	681	113.343564605964	1
0	683	113.442731272631	0
0	685	114.166173991091	1
0	687	114.265340657758	0
0	689	114.703883814239	1
0	691	114.803050480906	0
0	693	114.931167321156	1
0	695	115.030333987823	0
0	697	115.401214201855	1
0	699	115.500380868522	0
0	701	115.565684497423	1
0	703	115.66485116409	0
0	705	116.188125053764	1
0	707	116.287291720431	0
0	709	116.396210350836	1
0	711	116.495377017503	0
0	713	117.040958267026	1
0	715	117.140124933693	0
0	717	117.207048508508	1
0	719	117.306215175175	0
0	721	118.719285388432	1
0	723	118.818452055099	0
0	725	119.09196449926	1
0	727	119.191131165927	0
0	729	119.426709522088	1
0	731	119.525876188755	0
0	733	120.153972325666	1
0	735	120.253138992333	0
0	737	120.375294832199	1
0	739	120.474461498866	0
0	741	121.53399202794	1
0	743	121.633158694607	0
0	745	122.887340878541	1
0	747	122.986507545208	0
0	749	124.092237607166	1
0	751	124.154823359528	2
0	753	124.185311327421	2
0	756	124.249874432906	2
0	760	124.349041099573	0
0	762	124.769114887914	1
0	764	124.868281554581	0
0	766	125.809427267178	1
0	768	125.908593933845	0
0	770	125.985617399778	1
0	772	126.084784066445	0
0	774	126.463044758297	1
0	776	126.556588760351	2
0	779	126.619940746209	2
0	782	126.719107412876	0
0	784	126.782910096434	1
0	786	126.874608045874	2
0	789	126.973774712541	0
0	791	127.292749905362	1
0	793	127.336967694253	2
0	796	127.43613436092	0
0	798	127.648496672693	1
0	800	127.74766333936	0
0	802	127.981111148292	1
0	804	128.080277814959	0
0	806	128.315299460408	1
0	808	128.375588914652	2
0	811	128.474755581319	0
0	813	128.675015127828	1
0	815	128.774181794495	0
0	817	129.009945775078	1
0	819	129.044673650118	2
0	821	129.080705185094	2
0	825	129.179871851761	0
0	827	130.364838443099	1
0	829	130.464005109766	0
0	831	132.975041566756	1
0	833	133.074208233423	0
0	835	133.21270472742	1
0	837	133.311871394087	0
0	839	134.69457591144	1
0	841	134.793742578107	0
0	843	135.875313309681	1
0	845	135.974479976348	0
0	847	136.414217924134	1
0	849	136.513384590801	0
0	851	136.684147326307	1
0	853	136.783313992974	0
0	855	137.896461940279	1
0	857	137.983519254435	2
0	860	138.019193556288	2
0	863	138.118360222955	0
0	865	138.323562880675	1
0	867	138.416905344847	2
0	870	138.516072011514	0
0	872	138.908920121589	1
0	874	139.008086788256	0
0	876	139.187319947512	1
0	878	139.286486614179	0
0	880	140.333149907549	1
0	882	140.432316574216	0
0	884	140.546253770591	1
0	886	140.645420437258	0
0	888	140.898204294459	1
0	890	140.997370961126	0
0	892	141.15440006217	1
0	894	141.253566728837	0
0	896	141.320389160851	1
0	898	141.419555827518	0
0	900	141.65370799597	1
0	902	141.752874662637	0
0	904	143.85998638936	1
0	906	143.959153056027	0
0	908	144.395834348199	1
0	910	144.495001014866	0
0	912	145.130090034672	1
0	914	145.229256701339	0
0	916	145.271836498188	1
0	918	145.371003164855	0
0	920	146.022399067826	1
0	922	146.121565734493	0
0	924	146.22172670872	1
0	926	146.320893375387	0
0	928	149.230737376449	1
0	930	149.258823005196	2
0	932	149.28684062342	2
0	936	149.386007290087	0
0	938	150.053318207629	1
0	940	150.152484874296	0
0	942	152.165839937751	1
0	944	152.265006604418	0
0	946	152.297753753677	1
0	948	152.396920420344	0
0	950	153.33212699816	1
0	952	153.431293664827	0
0	954	153.544908923608	1
0	956	153.644075590275	0
0	958	154.040636471437	1
0	960	154.139803138104	0
0	962	155.39099588729	1
0	964	155.490162553957	0
0	966	156.449684693363	1
0	968	156.54885136003	0
0	970	156.969020482652	1
0	972	157.068187149319	0
0	974	157.181235062782	1
0	976	157.280401729449	0
0	978	157.94724065405	1
0	980	158.046407320717	0
0	982	158.540546264001	1
0	984	158.639712930668	0
0	986	158.983385334636	1
0	988	159.082552001303	0
0	990	159.861489824046	1
0	992	159.960656490713	0
0	994	159.97416968918	1
0	996	160.073336355847	0
0	998	160.078545977397	1
0	1000	160.177712644064	0
0	1002	160.335399555131	1
0	1004	160.434566221798	0
0	1006	160.611358260043	1
0	1008	160.71052492671	0
0	1010	161.377809415062	1
0	1012	161.476976081729	0
0	1014	162.785443481756	1
0	1016	162.884610148423	0
0	1018	163.016170341548	1
0	1020	163.115337008215	0
0	1022	163.320161496359	1
0	1024	163.419328163026	0
0	1026	163.537832839132	1
0	1028	163.57442554782	2
0	1031	163.673592214487	0
0	1033	163.871462031485	1
0	1035	163.970628698152	0
0	1037	164.249949083765	1
0	1039	164.349115750432	0
0	1041	164.693088897574	1
0	1043	164.792255564241	0
0	1045	165.334345087611	1
0	1047	165.433511754278	0
0	1049	166.697215778888	1
0	1051	166.77487989693	2
0	1054	166.874046563597	0
0	1056	167.846225650502	1
0	1058	167.945392317169	0
0	1060	169.41250393513	1
0	1062	169.511670601797	0
0	1064	170.91414500943	1
0	1066	171.013311676097	0
0	1068	171.449059494197	1
0	1070	171.548226160864	0
0	1072	174.698681667145	1
0	1074	174.797848333812	0
0	1076	175.024912746685	1
0	1078	175.124079413352	0
0	1080	175.498432248307	1
0	1082	175.597598914974	0
0	1084	175.625356562034	1
0	1086	175.68532506651	2
0	1088	175.706271809425	2
0	1092	175.805438476092	0
0	1094	176.136186889319	1
0	1096	176.235353555986	0
0	1098	176.400197664658	1
0	1100	176.499364331325	0
0	1102	177.263034322023	1
0	1104	177.36220098869	0
0	1106	177.997469350003	1
0	1108	178.09663601667	0
0	1110	178.52620583296	1
0	1112	178.625372499627	0
0	1114	178.761378758446	1
0	1116	178.860545425113	0
0	1118	179.305724879532	1
0	1120	179.404891546199	0
0	1122	179.727007898727	1
0	1124	179.826174565394	0
0	1126	180.336115884244	1
0	1128	180.435282550911	0
0	1130	181.755721610156	1
0	1132	181.854888276823	0
0	1134	182.213389245551	1
0	1136	182.312555912218	0
0	1138	183.093864343974	1
0	1140	183.193031010641	0
0	1142	185.397986772833	1
0	1144	185.4971534395	0
0	1146	185.616093504532	1
0	1148	185.715260171199	0
0	1150	187.533596744151	1
0	1152	187.632763410818	0
0	1154	187.833099307709	1
0	1156	187.932265974376	0
0	1158	188.3380680868	1
0	1160	188.437234753467	0
0	1162	188.559290962642	1
0	1164	188.658457629309	0
0	1166	188.826121622879	1
0	1168	188.925288289546	0
0	1170	189.361555990005	1
0	1172	189.460722656672	0
0	1174	189.879927724599	1
0	1176	189.979094391266	0
0	1178	190.000420448617	1
0	1180	190.099587115284	0
0	1182	191.15005055188	1
0	1184	191.249217218547	0
0	1186	193.166881917491	1
0	1188	193.266048584158	0
0	1190	193.335841537878	1
0	1192	193.435008204545	0
0	1194	193.962267863221	1
0	1196	194.061434529888	0
0	1198	195.283845059211	1
0	1200	195.383011725878	0
0	1202	195.982620114304	1
0	1204	196.081786780971	0
0	1206	196.228621775982	1
0	1208	196.327788442649	0
0	1210	198.028449782734	1
0	1212	198.127616449401	0
0	1214	199.146168779523	1
0	1216	199.24533544619	0
0	1218	200.318634718872	1
0	1220	200.417801385539	0
0	1222	200.476814896745	1
0	1224	200.575981563412	0
0	1226	203.457211604514	1
0	1228	203.556378271181	0
0	1230	203.85599758066	1
0	1232	203.955164247327	0
0	1234	203.963871175349	1
0	1236	204.063037842016	0
0	1238	204.403553887871	1
0	1240	204.45415577651	2
0	1242	204.464012875038	2
0	1246	204.563179541705	0
0	1248	204.807512394142	1
0	1250	204.906679060809	0
0	1252	205.329954758874	1
0	1254	205.429121425541	0
0	1256	205.841583178751	1
0	1258	205.940749845418	0
0	1260	206.578121075281	1
0	1262	206.653096508779	2
0	1265	206.752263175446	0
0	1267	208.036587986597	1
0	1269	208.135754653264	0
0	1271	208.242421852169	1
0	1273	208.341588518836	0
0	1275	209.286850791657	1
0	1277	209.386017458324	0
0	1279	209.467061051775	1
0	1281	209.566227718442	0
0	1283	210.595976445469	1
0	1285	210.695143112136	0
0	1287	212.878129629686	1
0	1289	212.977296296353	0
0	1291	213.271460494478	1
0	1293	213.370627161145	0
0	1295	213.832664861195	1
0	1297	213.931831527862	0
0	1299	216.281823443067	1
0	1301	216.380990109734	0
0	1303	217.521253741858	1
0	1305	217.620420408525	0
0	1307	219.49234353805	1
0	1309	219.591510204717	0
0	1311	219.863622497328	1
0	1313	219.916272233562	2
0	1316	220.015438900229	0
0	1318	220.453420669822	1
0	1320	220.552587336489	0
0	1322	220.921100779189	1
0	1324	221.020267445856	0
0	1326	221.090417540308	1
0	1328	221.189584206975	0
0	1330	221.353798268097	1
0	1332	221.452964934764	0
0	1334	221.83492337179	1
0	1336	221.934090038457	0
0	1338	225.15477552969	1
0	1340	225.253942196357	0
0	1342	230.618915349591	1
0	1344	230.718082016258	0
0	1346	231.028221893842	1
0	1348	231.127388560509	0
0	1350	231.227918173877	1
0	1352	231.327084840544	0
0	1354	232.473037296217	1
0	1356	232.572203962884	0
0	1358	232.657768051536	1
0	1360	232.756934718203	0
0	1362	232.766023330543	1
0	1364	232.86518999721	0
0	1366	233.062237347321	1
0	1368	233.161404013988	0
0	1370	233.512147318682	1
0	1372	233.611313985349	0
0	1374	233.784715174862	1
0	1376	233.883881841529	0
0	1378	234.081111208757	1
0	1380	234.180277875424	0
0	1382	235.509635115637	1
0	1384	235.608801782304	0
0	1386	236.788262064821	1
0	1388	236.887428731488	0
0	1390	237.876084570113	1
0	1392	237.97525123678	0
0	1394	238.127941515972	1
0	1396	238.227108182639	0
0	1398	238.287982715071	1
0	1400	238.387149381738	0
0	1402	239.216844387545	1
0	1404	239.316011054212	0
0	1406	240.391356720815	1
0	1408	240.490523387482	0
0	1410	241.351611960976	1
0	1412	241.450778627643	0
0	1414	242.693976477583	1
0	1416	242.79314314425	0
0	1418	242.795879145414	1
0	1420	242.895045812081	0
0	1422	243.074537922865	1
0	1424	243.173704589532	0
0	1426	244.043128397153	1
0	1428	244.14229506382	0
0	1430	245.22571335637	1
0	1432	245.324880023037	0
0	1434	245.450116998782	1
0	1436	245.473335115904	2
0	1438	245.546286674821	2
0	1442	245.645453341488	0
0	1444	246.039404567569	1
0	1446	246.138571234236	0
0	1448	246.78260684325	1
0	1450	246.829291385673	2
0	1453	246.886440316438	2
0	1456	246.985606983105	0
0	1458	247.431399185096	1
0	1460	247.530565851763	0
0	1462	247.828347872009	1
0	1464	247.927514538676	0
0	1466	248.226245602999	1
0	1468	248.307905591902	2
0	1471	248.407072258569	0
0	1473	248.744961795963	1
0	1475	248.84412846263	0
0	1477	249.124162561818	1
0	1479	249.139444142293	2
0	1482	249.23861080896	0
0	1484	249.253538336642	1
0	1486	249.352705003309	0
0	1488	249.741302976367	1
0	1490	249.840469643034	0
0	1492	250.135672224564	1
0	1494	250.234838891231	0
0	1496	250.999849473068	1
0	1498	251.099016139735	0
0	1500	254.955252112337	1
0	1502	255.054418779004	0
0	1504	255.282174158001	1
0	1506	255.381340824668	0
0	1508	256.163245613894	1
0	1510	256.262412280561	0
0	1512	256.315778219519	1
0	1514	256.414944886186	0
0	1516	258.370150128594	1
0	1518	258.469316795261	0
0	1520	259.289424137551	1
0	1522	259.388590804218	0
0	1524	260.511491605703	1
0	1526	260.61065827237	0
0	1528	261.104748469886	1
0	1530	261.203915136553	0
0	1532	261.551728869695	1
0	1534	261.650895536362	0
0	1536	261.679439514179	1
0	1538	261.778606180846	0
0	1540	262.477514800631	1
0	1542	262.576681467298	0
0	1544	263.326905500766	1
0	1546	263.426072167433	0
0	1548	263.432452539249	1
0	1550	263.531619205916	0
0	1552	263.916459818959	1
0	1554	264.015626485626	0
0	1556	264.224929373505	1
0	1558	264.324096040172	0
0	1560	264.373517494538	1
0	1562	264.434778249409	2
0	1565	264.533944916076	0
0	1567	264.549546293808	1
0	1569	264.648712960475	0
0	1571	265.405234966934	1
0	1573	265.504401633601	0
0	1575	267.251872171011	1
0	1577	267.351038837678	0
0	1579	267.665093748676	1
0	1581	267.764260415343	0
0	1583	267.981002761281	1
0	1585	268.080169427948	0
0	1587	269.212602540437	1
0	1589	269.311769207104	0
0	1591	271.161696782168	1
0	1593	271.260863448835	0
0	1595	271.269328557511	1
0	1597	271.368495224178	0
0	1599	271.514833203228	1
0	1601	271.613999869895	0
0	1603	272.087109209669	1
0	1605	272.120009260189	2
0	1608	272.219175926856	0
0	1610	272.622593196956	1
0	1612	272.721759863623	0
0	1614	274.997008611391	1
0	1616	275.096175278058	0
0	1618	276.852141054737	1
0	1620	276.951307721404	0
0	1622	277.042308459671	1
0	1624	277.141475126338	0
0	1626	277.864811907792	1
0	1628	277.886500096955	2
0	1631	277.985666763622	0
0	1633	278.021147966122	1
0	1635	278.120314632789	0
0	1637	279.804860781494	1
0	1639	279.904027448161	0
0	1641	282.675686220732	1
0	1643	282.726915117872	2
0	1646	282.826081784539	0
0	1648	284.478862454105	1
0	1650	284.578029120772	0
0	1652	285.428206443953	1
0	1654	285.52737311062	0
0	1656	286.534097345347	1
0	1658	286.633264012014	0
0	1660	287.363345392425	1
0	1662	287.462512059092	0
0	1664	287.510041852012	1
0	1666	287.609208518679	0
0	1668	287.979382372908	1
0	1670	288.078549039575	0
0	1672	288.676095791551	1
0	1674	288.775262458218	0
0	1676	288.829116573063	1
0	1678	288.92828323973	0
0	1680	289.851218870543	1
0	1682	289.95038553721	0
0	1684	291.112484699148	1
0	1686	291.211651365815	0
0	1688	292.204278643707	1
0	1690	292.303445310374	0
0	1692	293.133600592019	1
0	1694	293.232767258686	0
0	1696	293.304032964169	1
0	1698	293.381751841966	2
0	1701	293.480918508633	0
0	1703	293.810336944504	1
0	1705	293.909503611171	0
0	1707	294.124523682691	1
0	1709	294.223690349358	0
0	1711	294.341839082401	1
0	1713	294.441005749068	0
0	1715	294.576640395683	1
0	1717	294.67580706235	0
0	1719	295.240126504946	1
0	1721	295.339293171613	0
0	1723	296.118325789836	1
0	1725	296.217492456503	0
0	1727	296.624866649165	1
0	1729	296.724033315832	0
0	1731	297.388387090489	1
0	1733	297.487553757156	0
0	1735	297.58391677428	1
0	1737	297.683083440947	0
0	1739	298.036769601173	1
0	1741	298.13593626784	0
0	1743	298.696166564192	1
0	1745	298.795333230859	0
0	1747	299.085433399687	1
0	1749	299.184600066354	0
0	1751	299.287138290575	1
0	1753	299.386304957242	0
0	1755	300.625586714842	1
0	1757	300.724753381509	0
0	1759	301.163160813506	1
0	1761	301.262327480173	0
0	1763	301.434633230518	1
0	1765	301.533799897185	0
0	1767	301.709797847488	1
0	1769	301.808964514155	0
0	1771	302.006400055885	1
0	1773	302.105566722552	0
0	1775	304.202328418291	1
0	1777	304.248774913211	2
0	1780	304.347941579878	0
0	1782	304.697292443982	1
0	1784	304.796459110649	0
0	1786	305.180619481138	1
0	1788	305.23767405641	2
0	1791	305.305874216722	2
0	1794	305.405040883389	0
0	1796	306.010001629995	1
0	1798	306.109168296662	0
0	1800	306.452220938587	1
0	1802	306.551387605254	0
0	1804	307.265968929581	1
0	1806	307.269774230314	2
0	1809	307.368940896981	0
0	1811	308.378378891371	1
0	1813	308.477545558038	0
0	1815	309.55517568938	1
0	1817	309.654342356047	0
0	1819	311.266640086376	1
0	1821	311.310536848322	2
0	1824	311.409703514989	0
0	1826	311.409787183563	1
0	1828	311.50895385023	0
0	1830	311.779634936531	1
0	1832	311.822997045461	2
0	1835	311.922163712128	0
0	1837	312.311642366794	1
0	1839	312.410809033461	0
0	1841	312.618245756723	1
0	1843	312.71741242339	0
0	1845	313.881915924395	1
0	1847	313.981082591062	0
0	1849	315.008157573934	1
0	1851	315.107324240601	0
0	1853	315.444452831446	1
0	1855	315.543619498113	0
0	1857	315.64240773265	1
0	1859	315.672965262913	2
0	1862	315.77213192958	0
0	1864	315.85272307178	1
0	1866	315.951889738447	0
0	1868	317.386375924563	1
0	1870	317.48554259123	0
0	1872	317.721719250864	1
0	1874	317.820885917531	0
0	1876	319.445370771793	1
0	1878	319.54453743846	0
0	1880	319.822364873903	1
0	1882	319.92153154057	0
0	1884	321.913892968724	1
0	1886	322.013059635391	0
0	1888	322.468936281725	1
0	1890	322.568102948392	0
0	1892	323.560650498123	1
0	1894	323.65981716479	0
0	1896	324.656534675305	1
0	1898	324.755701341972	0
0	1900	325.403983223001	1
0	1902	325.503149889668	0
0	1904	326.016393181229	1
0	1906	326.115559847896	0
0	1908	327.363970199569	1
0	1910	327.463136866236	0
0	1912	328.416047293446	1
0	1914	328.515213960113	0
0	1916	328.554973600371	1
0	1918	328.654140267038	0
0	1920	330.532364150832	1
0	1922	330.631530817499	0
0	1924	330.690254796819	1
0	1926	330.742000171243	2
0	1929	330.84116683791	0
0	1931	331.881968365983	1
0	1933	331.98113503265	0
0	1935	332.004761037788	1
0	1937	332.103927704455	0
0	1939	332.3123101911	1
0	1941	332.411476857767	0
0	1943	333.53814962808	1
0	1945	333.637316294747	0
0	1947	333.913839627163	1
0	1949	334.01300629383	0
0	1951	334.621294269867	1
0	1953	334.720460936534	0
0	1955	336.37707432439	1
0	1957	336.476240991057	0
0	1959	336.857524385667	1
0	1961	336.956691052334	0
0	1963	337.046180101709	1
0	1965	337.145346768376	0
0	1967	337.593214787122	1
0	1969	337.692381453789	0
0	1971	338.016314052447	1
0	1973	338.115480719114	0
0	1975	339.048782970736	1
0	1977	339.147949637403	0
0	1979	339.945796987734	1
0	1981	340.044963654401	0
0	1983	340.677545592595	1
0	1985	340.776712259262	0
0	1987	341.367489450404	1
0	1989	341.466656117071	0
0	1991	341.747944837457	1
0	1993	341.847111504124	0
0	1995	341.931351628405	1
0	1997	342.030518295072	0
0	1999	342.522490929016	1
0	2001	342.621657595683	0
0	2003	343.542533101049	1
0	2005	343.641699767716	0
0	2007	344.152054406839	1
0	2009	344.251221073506	0
0	2011	344.670049475948	1
0	2013	344.769216142615	0
0	2015	345.547236249515	1
0	2017	345.634742371963	2
0	2020	345.73390903863	0
0	2022	346.395153510798	1
0	2024	346.494320177465	0
0	2026	346.934176516294	1
0	2028	347.033343182961	0
0	2030	347.489464041924	1
0	2032	347.588630708591	0
0	2034	348.330469730036	1
0	2036	348.429636396703	0
0	2038	348.438021217538	1
0	2040	348.537187884205	0
0	2042	348.749899216397	1
0	2044	348.849065883064	0
0	2046	349.362794123893	1
0	2048	349.46196079056	0
0	2050	351.134423181177	1
0	2052	351.233589847844	0
0	2054	351.729648018191	1
0	2056	351.828814684858	0
0	2058	352.560743894663	1
0	2060	352.65991056133	0
0	2062	353.425986522033	1
0	2064	353.5251531887	0
0	2066	353.644577785458	1
0	2068	353.743744452125	0
0	2070	353.751472814697	1
0	2072	353.850639481364	0
0	2074	353.889573244381	1
0	2076	353.988739911048	0
0	2078	355.179098619387	1
0	2080	355.278265286054	0
0	2082	356.5604188484	1
0	2084	356.659585515067	0
0	2086	357.331671857803	1
0	2088	357.43083852447	0
0	2090	359.151936673627	1
0	2092	359.251103340294	0
0	2094	360.195663121038	1
0	2096	360.294829787705	0
0	2098	360.373081475731	1
0	2100	360.472248142398	0
0	2102	361.280485834988	1
0	2104	361.379652501655	0
0	2106	362.347098232759	1
0	2108	362.446264899426	0
0	2110	363.680187438583	1
0	2112	363.77935410525	0
0	2114	364.389762346384	1
0	2116	364.467811048667	2
0	2119	364.566977715334	0
0	2121	366.771274172173	1
0	2123	366.87044083884	0
0	2125	368.415232803597	1
0	2127	368.508212474579	2
0	2130	368.607379141246	0
0	2132	368.759240109552	1
0	2134	368.858406776219	0
0	2136	369.491300892004	1
0	2138	369.590467558671	0
0	2140	369.708354813733	1
0	2142	369.8075214804	0
0	2144	370.772115918599	1
0	2146	370.862045055171	2
0	2149	370.961211721838	0
0	2151	371.332357368122	1
0	2153	371.431524034789	0
0	2155	371.723013826265	1
0	2157	371.822180492932	0
0	2159	372.264042958304	1
0	2161	372.363209624971	0
0	2163	372.634262203268	1
0	2165	372.733428869935	0
0	2167	373.053225610884	1
0	2169	373.152392277551	0