version 3
run PureAlohaExperiment-10-20260306-12:10:17-8840
attr configname PureAlohaExperiment
attr datetime 20260306-12:10:17
attr datetimef 20260306-121017
attr experiment PureAlohaExperiment
attr inifile omnetpp.ini
attr iterationvars "$numHosts=10, $iaMean=7"
attr iterationvarsd numHosts=10/iaMean=7
attr iterationvarsf numHosts=10,iaMean=7-
attr measurement "$numHosts=10, $iaMean=7"
attr network Aloha
attr processid 8840
attr repetition 0
attr replication #0
attr resultdir results
attr runnumber 10
attr seedset 10
itervar iaMean 7
itervar numHosts 10
config description "Channel utilization in the function of packet generation frequency"
config repeat 2
config sim-time-limit 90min
config Aloha.numHosts 10
config Aloha.host[*].iaTime exponential(7s)
config network Aloha
config Aloha.numHosts 20
config Aloha.slotTime 0s
config Aloha.txRate 9.6kbps
config Aloha.host[*].pkLenBits 952b
config **.x "uniform(0m, 1000m)"
config **.y "uniform(0m, 1000m)"
config **.animationHoldTimeOnCollision 0s
config **.idleAnimationSpeed 1
config **.transmissionEdgeAnimationSpeed 1e-6
config **.midTransmissionAnimationSpeed 1e-1

vector 0 Aloha.server serverChannelState:vector ETV
attr enum IDLE=0,TRANSMISSION=1,COLLISION=2
attr recordingmode vector
attr source channelState
attr title "Channel state"
vector 1 Aloha.host[0] radioState:vector ETV
attr enum IDLE=0,TRANSMIT=1
attr recordingmode vector
attr source state
attr title "Radio state"
vector 2 Aloha.host[1] radioState:vector ETV
attr enum IDLE=0,TRANSMIT=1
attr recordingmode vector
attr source state
attr title "Radio state"
vector 3 Aloha.host[2] radioState:vector ETV
attr enum IDLE=0,TRANSMIT=1
attr recordingmode vector
attr source state
attr title "Radio state"
vector 4 Aloha.host[3] radioState:vector ETV
attr enum IDLE=0,TRANSMIT=1
attr recordingmode vector
attr source state
attr title "Radio state"
vector 5 Aloha.host[4] radioState:vector ETV
attr enum IDLE=0,TRANSMIT=1
attr recordingmode vector
attr source state
attr title "Radio state"
vector 6 Aloha.host[5] radioState:vector ETV
attr enum IDLE=0,TRANSMIT=1
attr recordingmode vector
attr source state
attr title "Radio state"
vector 7 Aloha.host[6] radioState:vector ETV
attr enum IDLE=0,TRANSMIT=1
attr recordingmode vector
attr source state
attr title "Radio state"
vector 8 Aloha.host[7] radioState:vector ETV
attr enum IDLE=0,TRANSMIT=1
attr recordingmode vector
attr source state
attr title "Radio state"
vector 9 Aloha.host[8] radioState:vector ETV
attr enum IDLE=0,TRANSMIT=1
attr recordingmode vector
attr source state
attr title "Radio state"
vector 10 Aloha.host[9] radioState:vector ETV
attr enum IDLE=0,TRANSMIT=1
attr recordingmode vector
attr source state
attr title "Radio state"
vector 11 Aloha.server channelUtilizationVector:vector ETV
attr interpolationmode linear
attr recordingmode vector
attr source timeavg(receive)
attr title "channel utilization evolution"
0	0	0	0
0	2	0.02769435609	1
0	4	0.126861022757	0
0	6	0.21766722588	1
0	8	0.316833892547	0
0	10	1.545592009767	1
0	12	1.644758676434	0
0	14	2.867067904435	1
0	16	2.966234571102	0
0	18	4.060711744632	1
0	20	4.159878411299	0
0	22	5.024839548694	1
0	24	5.124006215361	0
0	26	6.636749365211	1
0	28	6.735916031878	0
0	30	9.08164170005	1
0	32	9.180808366717	0
0	34	10.167384918418	1
0	36	10.266551585085	0
0	38	10.573126067349	1
0	40	10.672292734016	0
0	42	11.722352550939	1
0	44	11.821519217606	0
0	46	11.872670780631	1
0	48	11.971837447298	0
0	50	12.06539481893	1
0	52	12.164561485597	0
0	54	12.894964946459	1
0	56	12.994131613126	0
0	58	14.409368984144	1
0	60	14.508535650811	0
0	62	15.020914641801	1
0	64	15.120081308468	0
0	66	15.436028012109	1
0	68	15.503081570714	2
0	70	15.51236716475	2
0	74	15.611533831417	0
0	76	15.741079231842	1
0	78	15.840245898509	0
0	80	16.531737512511	1
0	82	16.619910326754	2
0	85	16.719076993421	0
0	87	19.053465402837	1
0	89	19.13196225352	2
0	92	19.231128920187	0
0	94	19.595835326278	1
0	96	19.616876424195	2
0	99	19.705808416906	2
0	102	19.804975083573	0
0	104	20.122741435771	1
0	106	20.221908102438	0
0	108	21.462085970843	1
0	110	21.56125263751	0
0	112	21.647874951125	1
0	114	21.747041617792	0
0	116	21.830048053361	1
0	118	21.929214720028	0
0	120	22.357410638204	1
0	122	22.456577304871	0
0	124	22.530401105034	1
0	126	22.629567771701	0
0	128	23.362978239084	1
0	130	23.462144905751	0
0	132	24.191057508554	1
0	134	24.290224175221	0
0	136	26.237215497685	1
0	138	26.285180904279	2
0	141	26.384347570946	0
0	143	26.982002179444	1
0	145	27.048056682924	2
0	147	27.051705089214	2
0	150	27.091061242374	2
0	154	27.190227909041	0
0	156	27.84645779964	1
0	158	27.945624466307	0
0	160	28.037372665255	1
0	162	28.136539331922	0
0	164	28.505410989242	1
0	166	28.604577655909	0
0	168	29.082804682638	1
0	170	29.181971349305	0
0	172	29.518192460411	1
0	174	29.617359127078	0
0	176	29.65095203305	1
0	178	29.750118699717	0
0	180	29.942207948818	1
0	182	30.041374615485	0
0	184	30.37268717891	1
0	186	30.471853845577	0
0	188	30.85834528703	1
0	190	30.951769872306	2
0	193	31.050936538973	0
0	195	32.077654099676	1
0	197	32.176820766343	0
0	199	33.01255965261	1
0	201	33.111726319277	0
0	203	33.22267782598	1
0	205	33.321844492647	0
0	207	33.675931751455	1
0	209	33.775098418122	0
0	211	34.664528201845	1
0	213	34.763694868512	0
0	215	36.02395930137	1
0	217	36.123125968037	0
0	219	36.639991599517	1
0	221	36.739158266184	0
0	223	39.156426692675	1
0	225	39.255593359342	0
0	227	39.334352783813	1
0	229	39.380881293621	2
0	232	39.480047960288	0
0	234	40.167961989	1
0	236	40.267128655667	0
0	238	40.486148252619	1
0	240	40.585314919286	0
0	242	41.936505638108	1
0	244	42.027884130663	2
0	247	42.12705079733	0
0	249	43.026852556367	1
0	251	43.126019223034	0
0	253	43.515259418995	1
0	255	43.614426085662	0
0	257	44.876824232288	1
0	259	44.883656799912	2
0	262	44.982823466579	0
0	264	45.805372041709	1
0	266	45.904538708376	0
0	268	47.249807565991	1
0	270	47.348974232658	0
0	272	47.382148694119	1
0	274	47.481315360786	0
0	276	47.535954581931	1
0	278	47.635121248598	0
0	280	48.035818024891	1
0	282	48.134984691558	0
0	284	48.36206029374	1
0	286	48.461226960407	0
0	288	48.466545319032	1
0	290	48.471982220734	2
0	293	48.571148887401	0
0	295	49.091014144974	1
0	297	49.190180811641	0
0	299	49.608353103017	1
0	301	49.707519769684	0
0	303	51.964007751027	1
0	305	52.063174417694	0
0	307	54.678699298913	1
0	309	54.77786596558	0
0	311	55.524860523595	1
0	313	55.624027190262	0
0	315	55.660638039953	1
0	317	55.75980470662	0
0	319	56.076472854796	1
0	321	56.097566897123	2
0	324	56.19673356379	0
0	326	58.707144558681	1
0	328	58.806311225348	0
0	330	59.573898080371	1
0	332	59.673064747038	0
0	334	59.681840496633	1
0	336	59.7810071633	0
0	338	59.939591389682	1
0	340	60.025366828012	2
0	343	60.124533494679	0
0	345	61.087438273217	1
0	347	61.09576800958	2
0	350	61.194934676247	0
0	352	61.69967628009	1
0	354	61.798842946757	0
0	356	62.368012702377	1
0	358	62.467179369044	0
0	360	63.66731016684	1
0	362	63.766476833507	0
0	364	65.729483172092	1
0	366	65.828649838759	0
0	368	65.845517487148	1
0	370	65.944684153815	0
0	372	66.225202938285	1
0	374	66.324369604952	0
0	376	66.40694753212	1
0	378	66.506114198787	0
0	380	67.15221669119	1
0	382	67.251383357857	0
0	384	68.201895677212	1
0	386	68.301062343879	0
0	388	68.30677561111	1
0	390	68.405942277777	0
0	392	68.442577228827	1
0	394	68.541743895494	0
0	396	68.881790346852	1
0	398	68.980957013519	0
0	400	68.988036322135	1
0	402	69.087202988802	0
0	404	69.599367106914	1
0	406	69.698533773581	0
0	408	69.917009605598	1
0	410	70.011102516748	2
0	413	70.110269183415	0
0	415	70.566063128266	1
0	417	70.665229794933	0
0	419	70.856466323455	1
0	421	70.950686340693	2
0	424	71.04985300736	0
0	426	71.093281753777	1
0	428	71.192448420444	0
0	430	71.804352763765	1
0	432	71.895535365878	2
0	434	71.898065184249	2
0	438	71.997231850916	0
0	440	72.544346636385	1
0	442	72.643513303052	0
0	444	73.495909441509	1
0	446	73.595076108176	0
0	448	73.777799003039	1
0	450	73.876965669706	0
0	452	74.55112729316	1
0	454	74.571122047763	2
0	457	74.67028871443	0
0	459	74.958669310428	1
0	461	74.978451819179	2
0	464	75.077618485846	0
0	466	76.523892971294	1
0	468	76.571328239414	2
0	471	76.670494906081	0
0	473	77.249479723244	1
0	475	77.348646389911	0
0	477	77.505784227301	1
0	479	77.604950893968	0
0	481	79.080893213465	1
0	483	79.180059880132	0
0	485	79.999935373797	1
0	487	80.099102040464	0
0	489	80.421463941991	1
0	491	80.520630608658	0
0	493	80.630758265003	1
0	495	80.72992493167	0
0	497	80.769307869983	1
0	499	80.86847453665	0
0	501	81.864076320625	1
0	503	81.963242987292	0
0	505	82.963152439625	1
0	507	82.974887860454	2
0	510	83.074054527121	0
0	512	85.522674791884	1
0	514	85.621841458551	0
0	516	85.911623052609	1
0	518	86.010789719276	0
0	520	86.708035108043	1
0	522	86.80720177471	0
0	524	87.032959977605	1
0	526	87.132126644272	0
0	528	87.75056750432	1
0	530	87.849734170987	0
0	532	88.029829653561	1
0	534	88.128996320228	0
0	536	88.34099352033	1
0	538	88.403533264673	2
0	541	88.50269993134	0
0	543	88.652434698788	1
0	545	88.751601365455	0
0	547	89.312644907748	1
0	549	89.411811574415	0
0	551	89.413719530662	1
0	553	89.438597625346	2
0	556	89.537764292013	0
0	558	89.571289932971	1
0	560	89.670456599638	0
0	562	89.894734205871	1
0	564	89.993900872538	0
0	566	90.691805354526	1
0	568	90.790972021193	0
0	570	90.967577618538	1
0	572	91.066744285205	0
0	574	91.331624897968	1
0	576	91.430791564635	0
0	578	92.074446277435	1
0	580	92.080333311752	2
0	583	92.179499978419	0
0	585	92.64435646213	1
0	587	92.743523128797	0
0	589	92.760935388547	1
0	591	92.860102055214	0
0	593	93.234061359783	1
0	595	93.311315265821	2
0	598	93.410481932488	0
0	600	93.855863947538	1
0	602	93.955030614205	0
0	604	95.221326923321	1
0	606	95.303234638528	2
0	609	95.402401305195	0
0	611	95.505485000146	1
0	613	95.604651666813	0
0	615	96.181249715584	1
0	617	96.280416382251	0
0	619	96.315992093758	1
0	621	96.415158760425	0
0	623	97.064238792993	1
0	625	97.16340545966	0
0	627	97.185942068953	1
0	629	97.28510873562	0
0	631	99.96698868628	1
0	633	100.066155352947	0
0	635	100.068669655245	1
0	637	100.07240906629	2
0	639	100.103545647085	2
0	643	100.202712313752	0
0	645	100.483567710568	1
0	647	100.582734377235	0
0	649	100.703425390565	1
0	651	100.802592057232	0
0	653	101.264913696105	1
0	655	101.364080362772	0
0	657	104.555776106946	1
0	659	104.654942773613	0
0	661	105.148630652177	1
0	663	105.247797318844	0
0	665	105.302660605402	1
0	667	105.401827272069	0
0	669	106.244225570433	1
0	671	106.3433922371	0
0	673	107.428366454105	1
0	675	107.527533120772	0
0	677	108.127385791997	1
0	679	108.226552458664	0
0	681	109.063278111375	1
0	683	109.162444778042	0
0	685	109.774110697827	1
0	687	109.873277364494	0
0	689	112.703081307683	1
0	691	112.80224797435	0
0	693	112.865830507534	1
0	695	112.964997174201	0
0	697	114.268456783334	1
0	699	114.367623450001	0
0	701	114.632222844702	1
0	703	114.731389511369	0
0	705	114.866481257317	1
0	707	114.965647923984	0
0	709	115.368893554341	1
0	711	115.468060221008	0
0	713	115.95708017805	1
0	715	116.056246844717	0
0	717	116.578578113209	1
0	719	116.677744779876	0
0	721	117.441615146643	1
0	723	117.54078181331	0
0	725	117.988200800922	1
0	727	118.038361574035	2
0	730	118.137528240702	0
0	732	118.188721186341	1
0	734	118.287887853008	0
0	736	118.495184090227	1
0	738	118.594350756894	0
0	740	118.975844704412	1
0	742	119.075011371079	0
0	744	119.842704402647	1
0	746	119.941871069314	0
0	748	120.034805662248	1
0	750	120.133972328915	0
0	752	121.155629102453	1
0	754	121.25479576912	0
0	756	121.617369418153	1
0	758	121.71653608482	0
0	760	121.747312884467	1
0	762	121.846479551134	0
0	764	121.85405662213	1
0	766	121.895750138774	2
0	769	121.994916805441	0
0	771	122.035092194462	1
0	773	122.134258861129	0
0	775	122.579060924868	1
0	777	122.678227591535	0
0	779	122.795441352915	1
0	781	122.808396730462	2
0	784	122.907563397129	0
0	786	123.164402243662	1
0	788	123.263568910329	0
0	790	123.30311006831	1
0	792	123.402276734977	0
0	794	124.05802414109	1
0	796	124.157190807757	0
0	798	124.731961072036	1
0	800	124.831127738703	0
0	802	125.263049796707	1
0	804	125.362216463374	0
0	806	125.382658882539	1
0	808	125.399685945753	2
0	811	125.49885261242	0
0	813	126.428918968855	1
0	815	126.528085635522	0
0	817	126.559321696549	1
0	819	126.585213137802	2
0	822	126.684379804469	0
0	824	126.930758684709	1
0	826	127.029925351376	0
0	828	127.319322631886	1
0	830	127.418489298553	0
0	832	127.735876143577	1
0	834	127.835042810244	0
0	836	127.950146376539	1
0	838	128.049313043206	0
0	840	128.79115948799	1
0	842	128.890326154657	0
0	844	128.935643526425	1
0	846	129.034810193092	0
0	848	130.152871619584	1
0	850	130.252038286251	0
0	852	131.859801991426	1
0	854	131.958968658093	0
0	856	133.382653841113	1
0	858	133.48182050778	0
0	860	134.432888691124	1
0	862	134.532055357791	0
0	864	134.964168751664	1
0	866	135.063335418331	0
0	868	135.256130075893	1
0	870	135.35529674256	0
0	872	135.704247662639	1
0	874	135.803414329306	0
0	876	136.238939080341	1
0	878	136.338105747008	0
0	880	136.719562411796	1
0	882	136.818729078463	0
0	884	137.088991421601	1
0	886	137.188158088268	0
0	888	138.097852553007	1
0	890	138.197019219674	0
0	892	138.338942268323	1
0	894	138.43810893499	0
0	896	140.238390310847	1
0	898	140.337556977514	0
0	900	140.909828285933	1
0	902	141.0089949526	0
0	904	141.776205892843	1
0	906	141.782940197172	2
0	909	141.882106863839	0
0	911	142.08110196294	1
0	913	142.180268629607	0
0	915	142.660607260329	1
0	917	142.759773926996	0
0	919	144.371200436886	1
0	921	144.470367103553	0
0	923	144.944556584746	1
0	925	145.043723251413	0
0	927	145.145338698567	1
0	929	145.244505365234	0
0	931	146.531510592058	1
0	933	146.630677258725	0
0	935	146.989371846228	1
0	937	147.088538512895	0
0	939	148.122950822072	1
0	941	148.222117488739	0
0	943	148.326918244152	1
0	945	148.426084910819	0
0	947	149.182102340468	1
0	949	149.281269007135	0
0	951	150.898804545443	1
0	953	150.99797121211	0
0	955	151.817872932356	1
0	957	151.917039599023	0
0	959	151.967721263526	1
0	961	152.066887930193	0
0	963	153.977902984941	1
0	965	154.077069651608	0
0	967	156.790045532227	1
0	969	156.889212198894	0
0	971	156.998678230638	1
0	973	157.097844897305	0
0	975	157.742805134558	1
0	977	157.841971801225	0
0	979	157.874312310093	1
0	981	157.972226078317	2
0	984	158.071392744984	0
0	986	158.100570625654	1
0	988	158.11295167956	2
0	990	158.179642075561	2
0	994	158.278808742228	0
0	996	159.760354209005	1
0	998	159.859520875672	0
0	1000	160.925031976777	1
0	1002	161.024198643444	0
0	1004	161.321062148761	1
0	1006	161.420228815428	0
0	1008	162.149764120561	1
0	1010	162.248930787228	0
0	1012	162.869529009567	1
0	1014	162.968695676234	0
0	1016	164.342523394749	1
0	1018	164.441690061416	0
0	1020	164.688586626709	1
0	1022	164.787753293376	0
0	1024	165.060416861821	1
0	1026	165.159583528488	0
0	1028	165.933131012145	1
0	1030	166.032297678812	0
0	1032	166.164762986106	1
0	1034	166.230448762693	2
0	1037	166.32961542936	0
0	1039	166.916221326817	1
0	1041	167.015387993484	0
0	1043	168.168314033831	1
0	1045	168.267480700498	0
0	1047	168.287737985811	1
0	1049	168.386904652478	0
0	1051	169.770931251435	1
0	1053	169.870097918102	0
0	1055	169.928641334021	1
0	1057	169.966039056247	2
0	1060	170.065205722914	0
0	1062	170.317726308665	1
0	1064	170.416892975332	0
0	1066	171.077888821875	1
0	1068	171.177055488542	0
0	1070	172.511996215016	1
0	1072	172.611162881683	0
0	1074	172.661580102911	1
0	1076	172.728366930235	2
0	1079	172.827533596902	0
0	1081	172.846746847577	1
0	1083	172.945913514244	0
0	1085	173.337323917305	1
0	1087	173.436490583972	0
0	1089	175.064444483738	1
0	1091	175.163611150405	0
0	1093	175.689071768461	1
0	1095	175.788238435128	0
0	1097	175.9662795332	1
0	1099	176.065446199867	0
0	1101	177.015177385983	1
0	1103	177.11434405265	0
0	1105	177.333643774729	1
0	1107	177.432810441396	0
0	1109	178.656431979467	1
0	1111	178.755598646134	0
0	1113	179.666549632113	1
0	1115	179.76571629878	0
0	1117	179.988686839901	1
0	1119	180.087853506568	0
0	1121	180.355821463696	1
0	1123	180.454988130363	0
0	1125	180.677090445693	1
0	1127	180.77625711236	0
0	1129	180.994415438924	1
0	1131	181.093582105591	0
0	1133	181.124719095853	1
0	1135	181.211480237257	2
0	1138	181.310646903924	0
0	1140	181.994002678339	1
0	1142	182.093169345006	0
0	1144	182.67274848209	1
0	1146	182.771915148757	0
0	1148	183.333216591393	1
0	1150	183.43238325806	0
0	1152	183.879634803578	1
0	1154	183.978801470245	0
0	1156	185.448374951125	1
0	1158	185.547541617792	0
0	1160	185.991514233783	1
0	1162	186.09068090045	0
0	1164	186.822960401427	1
0	1166	186.922127068094	0
0	1168	187.56747899071	1
0	1170	187.666645657377	0
0	1172	187.832622564547	1
0	1174	187.931789231214	0
0	1176	188.210199471134	1
0	1178	188.309366137801	0
0	1180	188.951765844141	1
0	1182	189.050932510808	0
0	1184	189.11749572513	1
0	1186	189.123429717761	2
0	1188	189.136351203645	2
0	1190	189.166528129669	2
0	1195	189.265694796336	0
0	1197	190.863155016595	1
0	1199	190.962321683262	0
0	1201	191.654881309386	1
0	1203	191.754047976053	0
0	1205	195.254443674944	1
0	1207	195.353610341611	0
0	1209	195.448393731284	1
0	1211	195.547560397951	0
0	1213	195.645780724649	1
0	1215	195.744947391316	0
0	1217	197.052302962089	1
0	1219	197.151469628756	0
0	1221	197.2189016414	1
0	1223	197.318068308067	0
0	1225	198.223655272288	1
0	1227	198.322821938955	0
0	1229	198.472568627813	1
0	1231	198.57173529448	0
0	1233	199.466038356129	1
0	1235	199.565205022796	0
0	1237	199.908408584802	1
0	1239	200.007575251469	0
0	1241	200.36265247225	1
0	1243	200.461819138917	0
0	1245	200.684202550286	1
0	1247	200.783369216953	0
0	1249	201.817270325553	1
0	1251	201.91643699222	0
0	1253	202.017277287427	1
0	1255	202.116443954094	0
0	1257	202.23568532582	1
0	1259	202.334851992487	0
0	1261	202.476306680789	1
0	1263	202.575473347456	0
0	1265	202.695709923437	1
0	1267	202.794876590104	0
0	1269	202.861779890884	1
0	1271	202.960946557551	0
0	1273	203.846463836045	1
0	1275	203.945630502712	0
0	1277	204.512765388446	1
0	1279	204.611932055113	0
0	1281	206.180283068209	1
0	1283	206.21050621589	2
0	1286	206.309672882557	0
0	1288	207.373054083764	1
0	1290	207.426699625626	2
0	1292	207.456850434747	2
0	1296	207.556017101414	0
0	1298	207.575421889848	1
0	1300	207.624474084984	2
0	1303	207.723640751651	0
0	1305	209.282286585306	1
0	1307	209.381453251973	0
0	1309	210.441796669768	1
0	1311	210.540963336435	0
0	1313	212.951553574062	1
0	1315	213.050720240729	0
0	1317	213.056995094163	1
0	1319	213.15616176083	0
0	1321	214.811586930897	1
0	1323	214.910753597564	0
0	1325	214.917663681813	1
0	1327	215.01683034848	0
0	1329	215.632663028498	1
0	1331	215.731829695165	0
0	1333	215.885696881269	1
0	1335	215.984863547936	0
0	1337	216.931918784047	1
0	1339	216.96825793252	2
0	1342	217.067424599187	0
0	1344	217.097413734042	1
0	1346	217.196580400709	0
0	1348	217.225537095157	1
0	1350	217.324703761824	0
0	1352	217.763530220842	1
0	1354	217.862696887509	0
0	1356	218.879476467149	1
0	1358	218.978643133816	0
0	1360	219.021849670366	1
0	1362	219.121016337033	0
0	1364	219.540173145776	1
0	1366	219.639339812443	0
0	1368	220.579876991065	1
0	1370	220.628983877641	2
0	1373	220.728150544308	0
0	1375	220.778416647973	1
0	1377	220.87758331464	0
0	1379	221.129671583131	1
0	1381	221.228838249798	0
0	1383	221.25360402969	1
0	1385	221.352770696357	0
0	1387	222.146411224167	1
0	1389	222.245577890834	0
0	1391	223.284239338495	1
0	1393	223.383406005162	0
0	1395	223.664148615812	1
0	1397	223.763315282479	0
0	1399	225.431762507293	1
0	1401	225.53092917396	0
0	1403	226.132003590511	1
0	1405	226.231170257178	0
0	1407	226.697686081871	1
0	1409	226.758678379021	2
0	1412	226.857845045688	0
0	1414	227.544534399651	1
0	1416	227.643701066318	0
0	1418	228.356813976095	1
0	1420	228.455980642762	0
0	1422	229.259731382116	1
0	1424	229.358898048783	0
0	1426	229.709814891108	1
0	1428	229.72768361577	2
0	1431	229.826850282437	0
0	1433	230.551043730647	1
0	1435	230.648368825894	2
0	1438	230.747535492561	0
0	1440	231.174186683825	1
0	1442	231.273353350492	0
0	1444	232.06741303375	1
0	1446	232.166579700417	0
0	1448	234.149630702862	1
0	1450	234.248797369529	0
0	1452	234.596995079855	1
0	1454	234.617155368533	2
0	1457	234.7163220352	0
0	1459	235.155400223091	1
0	1461	235.254566889758	0
0	1463	236.073278863506	1
0	1465	236.172445530173	0
0	1467	236.798590838145	1
0	1469	236.897757504812	0
0	1471	237.640705280399	1
0	1473	237.739871947066	0
0	1475	238.490712917054	1
0	1477	238.589879583721	0
0	1479	239.17835087684	1
0	1481	239.277517543507	0
0	1483	240.204349318032	1
0	1485	240.303515984699	0
0	1487	240.564464293308	1
0	1489	240.663630959975	0
0	1491	242.745639258615	1
0	1493	242.844805925282	0
0	1495	243.833696693933	1
0	1497	243.9328633606	0
0	1499	244.236777676599	1
0	1501	244.335944343266	0
0	1503	245.212770026736	1
0	1505	245.263764303848	2
0	1508	245.362930970515	0
0	1510	245.611212193634	1
0	1512	245.679817406699	2
0	1515	245.778984073366	0
0	1517	245.977457427653	1
0	1519	246.07662409432	0
0	1521	246.892506658452	1
0	1523	246.991673325119	0
0	1525	247.072670093434	1
0	1527	247.171836760101	0
0	1529	247.769422411741	1
0	1531	247.868589078408	0
0	1533	247.899827929784	1
0	1535	247.998994596451	0
0	1537	248.460553120247	1
0	1539	248.551559984715	2
0	1542	248.650726651382	0
0	1544	248.745463030481	1
0	1546	248.829846540949	2
0	1549	248.929013207616	0
0	1551	249.282138366478	1
0	1553	249.381305033145	0
0	1555	249.956739564828	1
0	1557	250.055906231495	0
0	1559	250.599319168537	1
0	1561	250.698485835204	0
0	1563	251.371837766844	1
0	1565	251.471004433511	0
0	1567	251.484672036478	1
0	1569	251.583838703145	0
0	1571	251.926922373155	1
0	1573	251.928122414751	2
0	1575	251.97172713252	2
0	1579	252.070893799187	0
0	1581	253.72056912307	1
0	1583	253.768768541912	2
0	1586	253.867935208579	0
0	1588	254.109984238268	1
0	1590	254.209150904935	0
0	1592	254.991222257282	1
0	1594	255.090388923949	0
0	1596	256.066927644082	1
0	1598	256.166094310749	0
0	1600	256.346407113921	1
0	1602	256.445573780588	0
0	1604	256.875412591672	1
0	1606	256.974579258339	0
0	1608	258.153416916741	1
0	1610	258.252583583408	0
0	1612	259.045973443739	1
0	1614	259.145140110406	0
0	1616	259.763399398056	1
0	1618	259.862566064723	0
0	1620	260.035718622041	1
0	1622	260.134885288708	0
0	1624	260.862079020527	1
0	1626	260.961245687194	0
0	1628	261.135924699994	1
0	1630	261.217913311153	2
0	1633	261.31707997782	0
0	1635	261.644007122701	1
0	1637	261.700483718624	2
0	1640	261.799650385291	0
0	1642	261.868961970404	1
0	1644	261.968128637071	0
0	1646	262.882714953482	1
0	1648	262.981881620149	0
0	1650	263.561360013783	1
0	1652	263.66052668045	0
0	1654	265.44156034915	1
0	1656	265.540727015817	0
0	1658	265.649611170292	1
0	1660	265.748777836959	0
0	1662	266.059803382296	1
0	1664	266.158970048963	0
0	1666	268.066702235109	1
0	1668	268.165868901776	0
0	1670	269.081470668151	1
0	1672	269.180637334818	0
0	1674	269.210786977589	1
0	1676	269.309953644256	0
0	1678	269.369085925465	1
0	1680	269.468252592132	0
0	1682	269.888804842555	1
0	1684	269.987971509222	0
0	1686	270.443223918016	1
0	1688	270.542390584683	0
0	1690	271.457218484463	1
0	1692	271.55638515113	0
0	1694	272.307249539678	1
0	1696	272.406416206345	0
0	1698	273.29208775061	1
0	1700	273.391254417277	0
0	1702	274.052124528743	1
0	1704	274.15129119541	0
0	1706	274.567354273013	1
0	1708	274.588205576829	2
0	1711	274.687372243496	0
0	1713	274.744703035591	1
0	1715	274.843869702258	0
0	1717	275.117899795802	1
0	1719	275.200598803498	2
0	1722	275.299765470165	0
0	1724	275.675121643973	1
0	1726	275.726093848679	2
0	1729	275.825260515346	0
0	1731	275.974249020532	1
0	1733	276.073415687199	0
0	1735	276.610390754604	1
0	1737	276.709557421271	0
0	1739	277.472117965991	1
0	1741	277.571284632658	0
0	1743	278.070756842033	1
0	1745	278.1699235087	0
0	1747	278.262961376726	1
0	1749	278.273119402969	2
0	1751	278.312634930802	2
0	1755	278.411801597469	0
0	1757	278.884940170037	1
0	1759	278.984106836704	0
0	1761	279.192089492465	1
0	1763	279.291256159132	0
0	1765	279.607806302174	1
0	1767	279.698109186643	2
0	1770	279.79727585331	0
0	1772	279.842634248041	1
0	1774	279.941800914708	0
0	1776	282.079083720544	1
0	1778	282.082613786927	2
0	1781	282.181780453594	0
0	1783	282.611752120426	1
0	1785	282.710918787093	0
0	1787	283.360412834932	1
0	1789	283.459579501599	0
0	1791	284.430570570481	1
0	1793	284.529737237148	0
0	1795	285.693215389877	1
0	1797	285.792382056544	0
0	1799	286.348229570142	1
0	1801	286.447396236809	0
0	1803	287.737308736482	1
0	1805	287.836475403149	0
0	1807	288.605785934683	1
0	1809	288.70495260135	0
0	1811	288.705319279752	1
0	1813	288.804485946419	0
0	1815	290.473664780222	1
0	1817	290.572831446889	0
0	1819	290.781062886387	1
0	1821	290.880229553054	0
0	1823	291.917309269968	1
0	1825	292.016475936635	0
0	1827	292.130154761937	1
0	1829	292.229321428604	0
0	1831	292.585576278367	1
0	1833	292.684742945034	0
0	1835	293.080657031455	1
0	1837	293.123558510912	2
0	1840	293.222725177579	0
0	1842	294.978051913727	1
0	1844	295.077218580394	0
0	1846	295.602955944457	1
0	1848	295.702122611124	0
0	1850	297.951230254948	1
0	1852	298.050396921615	0
0	1854	298.395974292047	1
0	1856	298.495140958714	0
0	1858	298.930266103948	1
0	1860	299.029432770615	0
0	1862	299.860363509973	1
0	1864	299.95953017664	0
0	1866	300.167960811572	1
0	1868	300.267127478239	0
0	1870	300.430865543733	1
0	1872	300.5300322104	0
0	1874	300.931256575221	1
0	1876	301.030423241888	0
0	1878	301.936735247695	1
0	1880	302.035901914362	0
0	1882	302.236070574572	1
0	1884	302.335237241239	0
0	1886	304.17590392471	1
0	1888	304.275070591377	0
0	1890	304.735799791137	1
0	1892	304.834966457804	0
0	1894	304.927608514766	1
0	1896	305.026775181433	0
0	1898	305.188510076111	1
0	1900	305.287676742778	0
0	1902	305.334638478359	1
0	1904	305.433805145026	0
0	1906	308.236113198847	1
0	1908	308.335279865514	0
0	1910	308.635678523602	1
0	1912	308.734845190269	0
0	1914	309.122285548788	1
0	1916	309.130193560419	2
0	1919	309.229360227086	0
0	1921	309.323559876665	1
0	1923	309.422726543332	0
0	1925	310.087734407566	1
0	1927	310.186901074233	0
0	1929	310.521968529755	1
0	1931	310.621135196422	0
0	1933	310.73258270131	1
0	1935	310.831749367977	0
0	1937	311.45281704264	1
0	1939	311.551983709307	0
0	1941	314.227302971038	1
0	1943	314.326469637705	0
0	1945	316.723460889203	1
0	1947	316.82262755587	0
0	1949	316.862001630587	1
0	1951	316.961168297254	0
0	1953	317.307415192097	1
0	1955	317.406581858764	0
0	1957	319.448018321397	1
0	1959	319.482172853439	2
0	1962	319.581339520106	0
0	1964	321.085540151852	1
0	1966	321.184706818519	0
0	1968	322.355201915396	1
0	1970	322.454368582063	0
0	1972	323.979323978005	1
0	1974	324.078490644672	0
0	1976	324.113331414002	1
0	1978	324.212498080669	0
0	1980	325.351771069301	1
0	1982	325.450937735968	0
0	1984	326.158746872936	1
0	1986	326.257913539603	0
0	1988	326.562010893754	1
0	1990	326.661177560421	0
0	1992	327.508132235796	1
0	1994	327.580154483474	2
0	1997	327.679321150141	0
0	1999	328.02203441623	1
0	2001	328.121201082897	0
0	2003	328.121945367479	1
0	2005	328.221112034146	0
0	2007	328.355560557935	1
0	2009	328.454727224602	0
0	2011	329.279054451032	1
0	2013	329.378221117699	0
0	2015	330.936149162825	1
0	2017	331.035315829492	0
0	2019	331.203656881404	1
0	2021	331.302823548071	0
0	2023	332.089624516284	1
0	2025	332.182172069575	2
0	2028	332.205407833556	2
0	2031	332.304574500223	0
0	2033	332.346185898705	1
0	2035	332.445352565372	0
0	2037	334.261338048635	1
0	2039	334.360504715302	0
0	2041	334.960988455847	1
0	2043	335.060155122514	0
0	2045	336.599361441233	1
0	2047	336.6985281079	0
0	2049	337.30839658709	1
0	2051	337.407563253757	0
0	2053	337.933982465708	1
0	2055	337.944989282798	2
0	2058	338.044155949465	0
0	2060	338.404927216643	1
0	2062	338.416279486779	2
0	2065	338.515446153446	0
0	2067	339.464064939393	1
0	2069	339.56323160606	0
0	2071	341.877110388282	1
0	2073	341.908389122106	2
0	2076	342.007555788773	0
0	2078	342.303039108691	1
0	2080	342.402205775358	0
0	2082	342.785499152468	1
0	2084	342.797523798985	2
0	2086	342.810175708743	2
0	2090	342.90934237541	0
0	2092	343.062795107613	1
0	2094	343.16196177428	0
0	2096	343.32105419971	1
0	2098	343.378800613826	2
0	2101	343.477967280493	0
0	2103	343.93780738022	1
0	2105	344.036974046887	0
0	2107	344.454214326289	1
0	2109	344.553380992956	0
0	2111	345.190282217709	1
0	2113	345.289448884376	0
0	2115	345.506909945754	1
0	2117	345.606076612421	0
0	2119	346.580381531108	1
0	2121	346.679548197775	0
0	2123	346.800782538194	1
0	2125	346.899949204861	0
0	2127	348.851607682066	1
0	2129	348.950774348733	0
0	2131	349.362152463671	1
0	2133	349.442557413417	2
0	2136	349.541724080084	0
0	2138	349.751649682432	1
0	2140	349.850816349099	0
0	2142	350.599357471759	1
0	2144	350.698524138426	0
0	2146	351.457495107323	1
0	2148	351.55666177399	0
0	2150	353.388708974488	1
0	2152	353.487875641155	0
0	2154	353.767176307946	1
0	2156	353.866342974613	0
0	2158	355.191189720735	1
0	2160	355.290356387402	0
0	2162	355.601749461613	1
0	2164	355.70091612828	0
0	2166	356.332257532741	1
0	2168	356.431424199408	0
0	2170	356.926430286004	1
0	2172	356.995752822077	2
0	2175	357.094919488744	0
0	2177	357.433660547193	1
0	2179	357.53282721386	0
0	2181	357.821008345823	1
0	2183	357.92017501249	0
0	2185	358.078627280399	1
0	2187	358.177793947066	0
0	2189	358.332441177833	1
0	2191	358.4316078445	0
0	2193	359.057052516498	1
0	2195	359.156219183165	0
0	2197	359.302657575932	1
0	2199	359.401824242599	0
0	2201	360.004437903684	1
0	2203	360.103604570351	0
0	2205	360.297096675688	1
0	2207	360.396263342355	0
0	2209	360.622883972831	1
0	2211	360.722050639498	0
0	2213	361.49299242025	1
0	2215	361.592159086917	0
0	2217	362.954870791808	1
0	2219	363.054037458475	0
0	2221	364.55175422193	1
0	2223	364.603755152453	2
0	2226	364.70292181912	0
0	2228	365.783886357218	1
0	2230	365.883053023885	0
0	2232	366.073227260199	1
0	2234	366.148470301407	2
0	2237	366.247636968074	0
0	2239	366.416261733523	1
0	2241	366.444863153683	2
0	2244	366.54402982035	0
0	2246	366.776030635759	1
0	2248	366.875197302426	0
0	2250	367.540890134865	1