version 3
run PureAlohaExperiment-36-20260306-12:10:22-8840
attr configname PureAlohaExperiment
attr datetime 20260306-12:10:22
attr datetimef 20260306-121022
attr experiment PureAlohaExperiment
attr inifile omnetpp.ini
attr iterationvars "$numHosts=20, $iaMean=5"
attr iterationvarsd numHosts=20/iaMean=5
attr iterationvarsf numHosts=20,iaMean=5-
attr measurement "$numHosts=20, $iaMean=5"
attr network Aloha
attr processid 8840
attr repetition 0
attr replication #0
attr resultdir results
attr runnumber 36
attr seedset 36
itervar iaMean 5
itervar numHosts 20
config description "Channel utilization in the function of packet generation frequency"
config repeat 2
config sim-time-limit 90min
config Aloha.numHosts 20
config Aloha.host[*].iaTime exponential(5s)
config network Aloha
config Aloha.numHosts 20
config Aloha.slotTime 0s
config Aloha.txRate 9.6kbps
config Aloha.host[*].pkLenBits 952b
config **.x "uniform(0m, 1000m)"
config **.y "uniform(0m, 1000m)"
config **.animationHoldTimeOnCollision 0s
config **.idleAnimationSpeed 1
config **.transmissionEdgeAnimationSpeed 1e-6
config **.midTransmissionAnimationSpeed 1e-1

vector 0 Aloha.server serverChannelState:vector ETV
attr enum IDLE=0,TRANSMISSION=1,COLLISION=2
attr recordingmode vector
attr source channelState
attr title "Channel state"
vector 1 Aloha.host[0] radioState:vector ETV
attr enum IDLE=0,TRANSMIT=1
attr recordingmode vector
attr source state
attr title "Radio state"
vector 2 Aloha.host[1] radioState:vector ETV
attr enum IDLE=0,TRANSMIT=1
attr recordingmode vector
attr source state
attr title "Radio state"
vector 3 Aloha.host[2] radioState:vector ETV
attr enum IDLE=0,TRANSMIT=1
attr recordingmode vector
attr source state
attr title "Radio state"
vector 4 Aloha.host[3] radioState:vector ETV
attr enum IDLE=0,TRANSMIT=1
attr recordingmode vector
attr source state
attr title "Radio state"
vector 5 Aloha.host[4] radioState:vector ETV
attr enum IDLE=0,TRANSMIT=1
attr recordingmode vector
attr source state
attr title "Radio state"
vector 6 Aloha.host[5] radioState:vector ETV
attr enum IDLE=0,TRANSMIT=1
attr recordingmode vector
attr source state
attr title "Radio state"
vector 7 Aloha.host[6] radioState:vector ETV
attr enum IDLE=0,TRANSMIT=1
attr recordingmode vector
attr source state
attr title "Radio state"
vector 8 Aloha.host[7] radioState:vector ETV
attr enum IDLE=0,TRANSMIT=1
attr recordingmode vector
attr source state
attr title "Radio state"
vector 9 Aloha.host[8] radioState:vector ETV
attr enum IDLE=0,TRANSMIT=1
attr recordingmode vector
attr source state
attr title "Radio state"
vector 10 Aloha.host[9] radioState:vector ETV
attr enum IDLE=0,TRANSMIT=1
attr recordingmode vector
attr source state
attr title "Radio state"
vector 11 Aloha.host[10] radioState:vector ETV
attr enum IDLE=0,TRANSMIT=1
attr recordingmode vector
attr source state
attr title "Radio state"
vector 12 Aloha.host[11] radioState:vector ETV
attr enum IDLE=0,TRANSMIT=1
attr recordingmode vector
attr source state
attr title "Radio state"
vector 13 Aloha.host[12] radioState:vector ETV
attr enum IDLE=0,TRANSMIT=1
attr recordingmode vector
attr source state
attr title "Radio state"
vector 14 Aloha.host[13] radioState:vector ETV
attr enum IDLE=0,TRANSMIT=1
attr recordingmode vector
attr source state
attr title "Radio state"
vector 15 Aloha.host[14] radioState:vector ETV
attr enum IDLE=0,TRANSMIT=1
attr recordingmode vector
attr source state
attr title "Radio state"
vector 16 Aloha.host[15] radioState:vector ETV
attr enum IDLE=0,TRANSMIT=1
attr recordingmode vector
attr source state
attr title "Radio state"
vector 17 Aloha.host[16] radioState:vector ETV
attr enum IDLE=0,TRANSMIT=1
attr recordingmode vector
attr source state
attr title "Radio state"
vector 18 Aloha.host[17] radioState:vector ETV
attr enum IDLE=0,TRANSMIT=1
attr recordingmode vector
attr source state
attr title "Radio state"
vector 19 Aloha.host[18] radioState:vector ETV
attr enum IDLE=0,TRANSMIT=1
attr recordingmode vector
attr source state
attr title "Radio state"
vector 20 Aloha.host[19] radioState:vector ETV
attr enum IDLE=0,TRANSMIT=1
attr recordingmode vector
attr source state
attr title "Radio state"
vector 21 Aloha.server channelUtilizationVector:vector ETV
attr interpolationmode linear
attr recordingmode vector
attr source timeavg(receive)
attr title "channel utilization evolution"
0	0	0	0
0	2	0.114703848649	1
0	4	0.146118079032	2
0	7	0.245284745699	0
0	9	0.941811202355	1
0	11	1.040977869022	0
0	13	1.18119026131	1
0	15	1.214298745235	2
0	17	1.267952990951	2
0	21	1.367119657618	0
0	23	1.38048725683	1
0	25	1.479653923497	0
0	27	1.841767632575	1
0	29	1.940934299242	0
0	31	1.955072338236	1
0	33	1.965268849256	2
0	35	1.980143134805	2
0	39	2.068160839401	2
0	42	2.167327506068	0
0	44	2.228513943629	1
0	46	2.327680610296	0
0	48	2.435528074986	1
0	50	2.436834725438	2
0	53	2.536001392105	0
0	55	2.644234247051	1
0	57	2.664728720577	2
0	60	2.763895387244	0
0	62	2.893291291806	1
0	64	2.992457958473	0
0	66	3.005297604226	1
0	68	3.104464270893	0
0	70	3.580803077845	1
0	72	3.650353557639	2
0	75	3.749520224306	0
0	77	4.004039432121	1
0	79	4.103206098788	0
0	81	4.14650257241	1
0	83	4.245669239077	0
0	85	4.477347475064	1
0	87	4.490841544277	2
0	90	4.590008210944	0
0	92	4.605689380327	1
0	94	4.704856046994	0
0	96	4.95869853969	1
0	98	5.033858624318	2
0	101	5.133025290985	0
0	103	5.556802420684	1
0	105	5.655969087351	0
0	107	5.898676099024	1
0	109	5.92431965666	2
0	111	5.932460323646	2
0	114	6.022063406214	2
0	118	6.093045957873	2
0	121	6.19221262454	0
0	123	6.376025180548	1
0	125	6.404810905139	2
0	128	6.503977571806	0
0	130	6.549241657073	1
0	132	6.64840832374	0
0	134	6.694990407032	1
0	136	6.794157073699	0
0	138	7.308586912835	1
0	140	7.380438189142	2
0	143	7.479604855809	0
0	145	7.556818709942	1
0	147	7.655985376609	0
0	149	7.752853045319	1
0	151	7.823476407111	2
0	154	7.922643073778	0
0	156	8.428154801611	1
0	158	8.461456937563	2
0	161	8.56062360423	0
0	163	8.590747299118	1
0	165	8.689913965785	0
0	167	8.749507117986	1
0	169	8.791126635852	2
0	171	8.807601364914	2
0	175	8.906768031581	0
0	177	9.052906617516	1
0	179	9.152073284183	0
0	181	9.314719351876	1
0	183	9.340076160062	2
0	185	9.350721329679	2
0	189	9.449887996346	0
0	191	9.529614689883	1
0	193	9.532591331083	2
0	195	9.540429466488	2
0	199	9.639596133155	0
0	201	9.998402942318	1
0	203	10.097569608985	0
0	205	10.122401999923	1
0	207	10.22156866659	0
0	209	10.575465360566	1
0	211	10.674632027233	0
0	213	10.70827492122	1
0	215	10.807441587887	0
0	217	11.824032700458	1
0	219	11.87198896614	2
0	222	11.971155632807	0
0	224	12.325476036547	1
0	226	12.349001682913	2
0	229	12.44816834958	0
0	231	12.627689506168	1
0	233	12.726856172835	0
0	235	13.231082980285	1
0	237	13.330249646952	0
0	239	13.737341486521	1
0	241	13.836508153188	0
0	243	13.850425512704	1
0	245	13.949592179371	0
0	247	14.032376415723	1
0	249	14.13154308239	0
0	251	14.21890628834	1
0	253	14.260298640763	2
0	256	14.318217793016	2
0	259	14.417384459683	0
0	261	14.631778859617	1
0	263	14.720909591356	2
0	266	14.820076258023	0
0	268	15.605211363832	1
0	270	15.704378030499	0
0	272	15.802174849361	1
0	274	15.901341516028	0
0	276	15.9424377352	1
0	278	16.041604401867	0
0	280	16.578705784812	1
0	282	16.637277378265	2
0	285	16.736444044932	0
0	287	16.836297345643	1
0	289	16.93546401231	0
0	291	16.974364018014	1
0	293	17.073530684681	0
0	295	17.088284901093	1
0	297	17.18745156776	0
0	299	17.463655931258	1
0	301	17.562822597925	0
0	303	17.72723103726	1
0	305	17.826397703927	0
0	307	18.079778960013	1
0	309	18.17894562668	0
0	311	18.185508990963	1
0	313	18.28467565763	0
0	315	18.612894290295	1
0	317	18.653762672069	2
0	320	18.752929338736	0
0	322	18.827195433555	1
0	324	18.926362100222	0
0	326	19.068390967696	1
0	328	19.167557634363	0
0	330	19.606732974548	1
0	332	19.705899641215	0
0	334	19.729882535318	1
0	336	19.829049201985	0
0	338	19.87780445643	1
0	340	19.976971123097	0
0	342	20.173990437655	1
0	344	20.273157104322	0
0	346	20.618057290974	1
0	348	20.62727728451	2
0	351	20.726443951177	0
0	353	21.814406191667	1
0	355	21.913572858334	0
0	357	21.922053397347	1
0	359	21.935899947803	2
0	362	22.03506661447	0
0	364	22.447338563419	1
0	366	22.546505230086	0
0	368	23.01250695449	1
0	370	23.076134877518	2
0	373	23.175301544185	0
0	375	23.179610540163	1
0	377	23.27877720683	0
0	379	24.510487032721	1
0	381	24.609653699388	0
0	383	24.771122320467	1
0	385	24.852211782291	2
0	388	24.880742562626	2
0	391	24.979909229293	0
0	393	25.148405972329	1
0	395	25.247572638996	0
0	397	25.379233918283	1
0	399	25.47840058495	0
0	401	25.5081221833	1
0	403	25.607288849967	0
0	405	26.388564502636	1
0	407	26.466133069727	2
0	410	26.565299736394	0
0	412	26.94626904056	1
0	414	27.045435707227	0
0	416	27.154303836624	1
0	418	27.253470503291	0
0	420	27.435396052005	1
0	422	27.525850859343	2
0	425	27.62501752601	0
0	427	27.660785912331	1
0	429	27.759952578998	0
0	431	28.259037078876	1
0	433	28.356885445034	2
0	436	28.456052111701	0
0	438	28.512034992833	1
0	440	28.6112016595	0
0	442	28.738518760168	1
0	444	28.831628502588	2
0	447	28.930795169255	0
0	449	28.996802990367	1
0	451	29.095969657034	0
0	453	29.143454255239	1
0	455	29.242620921906	0
0	457	29.48012147543	1
0	459	29.579288142097	0
0	461	30.142850904087	1
0	463	30.242017570754	0
0	465	30.263909938212	1
0	467	30.292482291954	2
0	470	30.391648958621	0
0	472	31.047325993493	1
0	474	31.14649266016	0
0	476	31.355701622298	1
0	478	31.402722707919	2
0	481	31.501889374586	0
0	483	31.872518632152	1
0	485	31.902837124979	2
0	488	32.002003791646	0
0	490	33.330626573837	1
0	492	33.368894709454	2
0	495	33.468061376121	0
0	497	33.619264888262	1
0	499	33.718431554929	0
0	501	34.008937434994	1
0	503	34.108104101661	0
0	505	34.252014452494	1
0	507	34.351181119161	0
0	509	34.6706086101	1
0	511	34.769775276767	0
0	513	35.373661077786	1
0	515	35.472827744453	0
0	517	35.744487190794	1
0	519	35.843653857461	0
0	521	36.222724586674	1
0	523	36.321891253341	0
0	525	36.397726536167	1
0	527	36.469213990621	2
0	530	36.525680901793	2
0	533	36.62484756846	0
0	535	36.673675639069	1
0	537	36.676853130544	2
0	539	36.688930436606	2
0	543	36.788097103273	0
0	545	36.816481133501	1
0	547	36.898992887349	2
0	550	36.998159554016	0
0	552	37.295400734975	1
0	554	37.394567401642	0
0	556	37.717353736073	1
0	558	37.756258064807	2
0	560	37.777634209589	2
0	564	37.869270293831	2
0	567	37.968436960498	0
0	569	38.369437833197	1
0	571	38.468604499864	0
0	573	38.578271551212	1
0	575	38.598398488518	2
0	577	38.652229864948	2
0	581	38.751396531615	0
0	583	38.753251224024	1
0	585	38.852417890691	0
0	587	38.871862979483	1
0	589	38.97102964615	0
0	591	39.118677008297	1
0	593	39.195441178364	2
0	596	39.274915114751	2
0	599	39.374081781418	0
0	601	39.81549324794	1
0	603	39.914659914607	0
0	605	40.074703807677	1
0	607	40.173870474344	0
0	609	40.188303890988	1
0	611	40.287470557655	0
0	613	40.500987016238	1
0	615	40.600153682905	0
0	617	41.928208140351	1
0	619	42.027374807018	0
0	621	42.350561042809	1
0	623	42.449727709476	0
0	625	42.600928464033	1
0	627	42.7000951307	0
0	629	43.387309240173	1
0	631	43.48647590684	0
0	633	43.585510984823	1
0	635	43.68467765149	0
0	637	43.846268383355	1
0	639	43.893160411682	2
0	642	43.992327078349	0
0	644	44.193201570083	1
0	646	44.29236823675	0
0	648	44.307071371873	1
0	650	44.32607102707	2
0	653	44.425237693737	0
0	655	44.866879397557	1
0	657	44.939046284286	2
0	660	45.038212950953	0
0	662	45.50472757191	1
0	664	45.603894238577	0
0	666	46.010693904251	1
0	668	46.109860570918	0
0	670	46.482319691788	1
0	672	46.506574213375	2
0	674	46.534873475225	2
0	677	46.602415741296	2
0	681	46.701582407963	0
0	683	47.1513806111	1
0	685	47.170895145553	2
0	688	47.27006181222	0
0	690	47.344406726521	1
0	692	47.443573393188	0
0	694	47.81907720947	1
0	696	47.832094848806	2
0	698	47.897522052322	2
0	702	47.996688718989	0
0	704	48.288214629432	1
0	706	48.387381296099	0
0	708	49.30725168839	1
0	710	49.31413021151	2
0	712	49.348219295393	2
0	716	49.44738596206	0
0	718	49.800553691661	1
0	720	49.899720358328	0
0	722	49.986917773554	1
0	724	50.086084440221	0
0	726	50.223836478803	1
0	728	50.32300314547	0
0	730	50.324038990033	1
0	732	50.4232056567	0
0	734	50.673192673168	1
0	736	50.772359339835	0
0	738	51.129150518325	1
0	740	51.228317184992	0
0	742	51.533561258586	1
0	744	51.632727925253	0
0	746	51.770561184903	1
0	748	51.86972785157	0
0	750	51.983594718775	1
0	752	52.082761385442	0
0	754	52.535163482429	1
0	756	52.634330149096	0
0	758	52.650388797995	1
0	760	52.650803927407	2
0	763	52.749970594074	0
0	765	53.050510917061	1
0	767	53.149677583728	0
0	769	53.75429192665	1
0	771	53.853458593317	0
0	773	53.896397552264	1
0	775	53.995564218931	0
0	777	54.155348652069	1
0	779	54.254515318736	0
0	781	54.292048814068	1
0	783	54.296003834413	2
0	786	54.39517050108	0
0	788	54.550140165081	1
0	790	54.649306831748	0
0	792	56.117423623043	1
0	794	56.21659028971	0
0	796	56.265302080641	1
0	798	56.364468747308	0
0	800	56.797741373655	1
0	802	56.801815259863	2
0	804	56.829148573766	2
0	808	56.928315240433	0
0	810	56.933547930368	1
0	812	56.949419935952	2
0	815	57.048586602619	0
0	817	57.115133693157	1
0	819	57.153144255016	2
0	822	57.252310921683	0
0	824	57.888313719709	1
0	826	57.987480386376	0
0	828	58.053336618824	1
0	830	58.152503285491	0
0	832	58.583344428445	1
0	834	58.682511095112	0
0	836	58.834964406861	1
0	838	58.894971675743	2
0	841	58.993139333384	2
0	844	59.092306000051	0
0	846	59.49111433005	1
0	848	59.590280996717	0
0	850	59.693084884775	1
0	852	59.792251551442	0
0	854	60.315801625511	1
0	856	60.414968292178	0
0	858	60.506816685863	1
0	860	60.54710890495	2
0	863	60.646275571617	0
0	865	61.107803576176	1
0	867	61.206970242843	0
0	869	61.233454848205	1
0	871	61.264183208675	2
0	874	61.363349875342	0
0	876	61.426760994813	1
0	878	61.52592766148	0
0	880	61.543386788245	1
0	882	61.604201448893	2
0	885	61.70336811556	0
0	887	61.935524804348	1
0	889	62.034691471015	0
0	891	62.19495293223	1
0	893	62.294119598897	0
0	895	62.835061622225	1
0	897	62.845718212841	2
0	900	62.944884879508	0
0	902	63.56680896868	1
0	904	63.576525365189	2
0	906	63.582823538593	2
0	908	63.623124882898	2
0	911	63.671973827771	2
0	916	63.771140494438	0
0	918	63.908351697063	1
0	920	63.973440737163	2
0	923	64.07260740383	0
0	925	64.104805326342	1
0	927	64.203971993009	0
0	929	64.477057610462	1
0	931	64.576224277129	0
0	933	64.625511737937	1
0	935	64.724678404604	0
0	937	64.823374594704	1
0	939	64.89818219711	2
0	942	64.997348863777	0
0	944	65.062369134386	1
0	946	65.161535801053	0
0	948	65.527230742764	1
0	950	65.626397409431	0
0	952	65.996186130302	1
0	954	66.060739580637	2
0	957	66.159906247304	0
0	959	66.223462615338	1
0	961	66.322629282005	0
0	963	66.410048173626	1
0	965	66.509214840293	0
0	967	66.843233698441	1
0	969	66.942400365108	0
0	971	67.310759630057	1
0	973	67.345549488364	2
0	976	67.444716155031	0
0	978	67.454538229074	1
0	980	67.553704895741	0
0	982	68.07914201592	1
0	984	68.178308682587	0
0	986	69.243863979888	1
0	988	69.272767077358	2
0	990	69.338421714656	2
0	994	69.437588381323	0
0	996	69.459269752233	1
0	998	69.5584364189	0
0	1000	69.611805978792	1
0	1002	69.710972645459	0
0	1004	69.810778781052	1
0	1006	69.909945447719	0
0	1008	70.091118936429	1
0	1010	70.190285603096	0
0	1012	70.199366418906	1
0	1014	70.298533085573	0
0	1016	70.322060343408	1
0	1018	70.421227010075	0
0	1020	70.961561090795	1
0	1022	71.023058156248	2
0	1024	71.033301717083	2
0	1028	71.13246838375	0
0	1030	71.253032318492	1
0	1032	71.352198985159	0
0	1034	71.949742899587	1
0	1036	72.048909566254	0
0	1038	72.54364457674	1
0	1040	72.642811243407	0
0	1042	72.666528228531	1
0	1044	72.765694895198	0
0	1046	73.594072642299	1
0	1048	73.649070817993	2
0	1050	73.679271225414	2
0	1054	73.778437892081	0
0	1056	73.809695093047	1
0	1058	73.908861759714	0
0	1060	73.91970755338	1
0	1062	74.018874220047	0
0	1064	74.092615228535	1
0	1066	74.174741556639	2
0	1069	74.273908223306	0
0	1071	74.555994338359	1
0	1073	74.655161005026	0
0	1075	74.710767305443	1
0	1077	74.80993397211	0
0	1079	75.14574844617	1
0	1081	75.244915112837	0
0	1083	75.551873079837	1
0	1085	75.635576092427	2
0	1088	75.734742759094	0
0	1090	76.140180452361	1
0	1092	76.213304748776	2
0	1095	76.312471415443	0
0	1097	76.396500343091	1
0	1099	76.495667009758	0
0	1101	76.608527771779	1
0	1103	76.707694438446	0
0	1105	76.772697028747	1
0	1107	76.871863695414	0
0	1109	76.932138071349	1
0	1111	77.031304738016	0
0	1113	77.052240186744	1
0	1115	77.151406853411	0
0	1117	77.270239912033	1
0	1119	77.3694065787	0
0	1121	77.384009772755	1
0	1123	77.483176439422	0
0	1125	77.664237258719	1
0	1127	77.763403925386	0
0	1129	77.9160791678	1
0	1131	78.015245834467	0
0	1133	78.043449392267	1
0	1135	78.056790305385	2
0	1138	78.155956972052	0
0	1140	78.677541453033	1
0	1142	78.686700674207	2
0	1145	78.785867340874	0
0	1147	79.440020502858	1
0	1149	79.539187169525	0
0	1151	79.576351078994	1
0	1153	79.62286200581	2
0	1156	79.722028672477	0
0	1158	80.123660207987	1
0	1160	80.222826874654	0
0	1162	80.670406613448	1
0	1164	80.769573280115	0
0	1166	81.479511486481	1
0	1168	81.578678153148	0
0	1170	81.588528724445	1
0	1172	81.687695391112	0
0	1174	81.732590937626	1
0	1176	81.755840408927	2
0	1179	81.855007075594	0
0	1181	82.347176164369	1
0	1183	82.446342831036	0
0	1185	83.107436595445	1
0	1187	83.206603262112	0
0	1189	84.497762437601	1
0	1191	84.532670477779	2
0	1194	84.631837144446	0
0	1196	84.818038049296	1
0	1198	84.917204715963	0
0	1200	84.932804643509	1
0	1202	84.937450599158	2
0	1204	84.953160567421	2
0	1208	85.052327234088	0
0	1210	85.257462393754	1
0	1212	85.356629060421	0
0	1214	85.62747912973	1
0	1216	85.630702615191	2
0	1218	85.67983712002	2
0	1222	85.779003786687	0
0	1224	86.028428803398	1
0	1226	86.127595470065	0
0	1228	86.208388400858	1
0	1230	86.307555067525	0
0	1232	86.440279763741	1
0	1234	86.539446430408	0
0	1236	86.956849111484	1
0	1238	87.056015778151	0
0	1240	87.420405952902	1
0	1242	87.502391808156	2
0	1245	87.547235840799	2
0	1248	87.646402507466	0
0	1250	88.517498654343	1
0	1252	88.61666532101	0
0	1254	89.095351510361	1
0	1256	89.121725482924	2
0	1259	89.220892149591	0
0	1261	89.27138527527	1
0	1263	89.370551941937	0
0	1265	89.462758332173	1
0	1267	89.493712963279	2
0	1269	89.55294582551	2
0	1273	89.652112492177	0
0	1275	89.894888885584	1
0	1277	89.929966464815	2
0	1280	90.029133131482	0
0	1282	90.03046602772	1
0	1284	90.129632694387	0
0	1286	90.130703074782	1
0	1288	90.229869741449	0
0	1290	90.337718438599	1
0	1292	90.436885105266	0
0	1294	90.7579151805	1
0	1296	90.856935665898	2
0	1299	90.956102332565	0
0	1301	91.089437335893	1
0	1303	91.153037622544	2
0	1306	91.197678382146	2
0	1309	91.296845048813	0
0	1311	91.517419028594	1
0	1313	91.616585695261	0
0	1315	91.880224733761	1
0	1317	91.979391400428	0
0	1319	92.294513285438	1
0	1321	92.393679952105	0
0	1323	92.46743968627	1
0	1325	92.566606352937	0
0	1327	92.838586421419	1
0	1329	92.937753088086	0
0	1331	93.008199836339	1
0	1333	93.107366503006	0
0	1335	93.165866639061	1
0	1337	93.191262204068	2
0	1340	93.278564792855	2
0	1343	93.377731459522	0
0	1345	93.396690716323	1
0	1347	93.49585738299	0
0	1349	93.851787968714	1
0	1351	93.938280493919	2
0	1354	94.037447160586	0
0	1356	94.371668195167	1
0	1358	94.388034099222	2
0	1360	94.38882029659	2
0	1364	94.487986963257	0
0	1366	94.534839760369	1
0	1368	94.634006427036	0
0	1370	94.678840870091	1
0	1372	94.778007536758	0
0	1374	94.986836709837	1
0	1376	95.086003376504	0
0	1378	95.201842586601	1
0	1380	95.213822855603	2
0	1382	95.235685406879	2
0	1386	95.334852073546	0
0	1388	95.760796415657	1
0	1390	95.859963082324	0
0	1392	96.265351904002	1
0	1394	96.364518570669	0
0	1396	96.962155919385	1
0	1398	97.061322586052	0
0	1400	97.142456675943	1
0	1402	97.24162334261	0
0	1404	97.621949657984	1
0	1406	97.721116324651	0
0	1408	98.212822807987	1
0	1410	98.311989474654	0
0	1412	98.35450992522	1
0	1414	98.453676591887	0
0	1416	98.454755514495	1
0	1418	98.553922181162	0
0	1420	99.095626677778	1
0	1422	99.148259604493	2
0	1425	99.24742627116	0
0	1427	99.395352832657	1
0	1429	99.494519499324	0
0	1431	99.596633261644	1
0	1433	99.630961831021	2
0	1436	99.730128497688	0
0	1438	99.810861232472	1
0	1440	99.910027899139	0
0	1442	100.609612063906	1
0	1444	100.708778730573	0
0	1446	100.734677619796	1
0	1448	100.833844286463	0
0	1450	100.834406886823	1
0	1452	100.93357355349	0
0	1454	101.084906838708	1
0	1456	101.184073505375	0
0	1458	101.44976432426	1
0	1460	101.548930990927	0
0	1462	101.635785225491	1
0	1464	101.679653941863	2
0	1467	101.77882060853	0
0	1469	102.118717795828	1
0	1471	102.216799042009	2
0	1474	102.315965708676	0
0	1476	102.737875702004	1
0	1478	102.837042368671	0
0	1480	102.87731943362	1
0	1482	102.976486100287	0
0	1484	103.322764517138	1
0	1486	103.421931183805	0
0	1488	103.638778520407	1
0	1490	103.737945187074	0
0	1492	103.79397493037	1
0	1494	103.820067130168	2
0	1497	103.919233796835	0
0	1499	104.159191063235	1
0	1501	104.258357729902	0
0	1503	104.385610279213	1
0	1505	104.479201914704	2
0	1508	104.578368581371	0
0	1510	104.666945893348	1
0	1512	104.730005810855	2
0	1514	104.739752303681	2
0	1516	104.754629639376	2
0	1519	104.815338293534	2
0	1524	104.891226927185	2
0	1526	104.899055920956	2
0	1530	104.998222587623	0
0	1532	105.298346219607	1
0	1534	105.397512886274	0
0	1536	105.422270973081	1
0	1538	105.521437639748	0
0	1540	105.779690360556	1
0	1542	105.807998261641	2
0	1545	105.907164928308	0
0	1547	106.598144807133	1
0	1549	106.6973114738	0
0	1551	106.727418165358	1
0	1553	106.826584832025	0
0	1555	106.844362330409	1
0	1557	106.943528997076	0
0	1559	107.054907579692	1
0	1561	107.100776385588	2
0	1563	107.138350670572	2
0	1566	107.199550179113	2
0	1570	107.29871684578	0
0	1572	107.302192376952	1
0	1574	107.401359043619	0
0	1576	107.585371787452	1
0	1578	107.684538454119	0
0	1580	107.785685250066	1
0	1582	107.884851916733	0
0	1584	108.063055318333	1
0	1586	108.162221985	0
0	1588	108.193549305824	1
0	1590	108.292715972491	0
0	1592	108.507894282294	1
0	1594	108.607060948961	0
0	1596	108.985592033274	1
0	1598	109.084758699941	0
0	1600	109.230683936676	1
0	1602	109.249238100692	2
0	1604	109.286052866501	2
0	1608	109.385219533168	0
0	1610	109.525794932284	1
0	1612	109.624961598951	0
0	1614	109.700877853603	1
0	1616	109.80004452027	0
0	1618	110.382880365001	1
0	1620	110.469308892804	2
0	1623	110.568475559471	0
0	1625	110.675326013104	1
0	1627	110.774492679771	0
0	1629	111.307242372313	1
0	1631	111.40640903898	0
0	1633	111.789268622983	1
0	1635	111.82988727282	2
0	1637	111.830603098777	2
0	1641	111.929769765444	0
0	1643	112.221427489052	1
0	1645	112.228475574954	2
0	1648	112.327642241621	0
0	1650	112.614062378679	1
0	1652	112.713229045346	0
0	1654	112.978465122463	1
0	1656	113.07763178913	0
0	1658	113.478692127247	1
0	1660	113.577858793914	0
0	1662	113.611888630678	1
0	1664	113.711055297345	0
0	1666	114.233866422913	1
0	1668	114.32871577179	2
0	1671	114.427882438457	0
0	1673	114.461307012611	1
0	1675	114.560473679278	0
0	1677	115.843027735407	1
0	1679	115.942194402074	0
0	1681	116.431024403659	1
0	1683	116.530191070326	0
0	1685	117.290872257012	1
0	1687	117.390038923679	0
0	1689	117.559450807098	1
0	1691	117.639788672802	2
0	1694	117.673272011395	2
0	1697	117.772438678062	0
0	1699	118.261311604666	1
0	1701	118.360478271333	0
0	1703	118.373759449706	1
0	1705	118.457568776189	2
0	1708	118.556735442856	0
0	1710	118.779166438047	1
0	1712	118.878333104714	0
0	1714	119.412695192634	1
0	1716	119.451637166851	2
0	1719	119.550803833518	0
0	1721	120.316076014118	1
0	1723	120.415242680785	0
0	1725	120.711324124677	1
0	1727	120.810490791344	0
0	1729	120.813638428646	1
0	1731	120.912805095313	0
0	1733	120.937003175354	1
0	1735	121.036169842021	0
0	1737	121.849948092432	1
0	1739	121.85177857589	2
0	1741	121.873851068138	2
0	1745	121.964315154482	2
0	1748	121.980234984043	2
0	1751	122.076083340019	2
0	1754	122.175250006686	0
0	1756	122.379436757397	1
0	1758	122.417612268487	2
0	1761	122.516778935154	0
0	1763	122.779405115262	1
0	1765	122.878571781929	0
0	1767	123.97063644148	1
0	1769	124.033399619404	2
0	1772	124.132566286071	0
0	1774	124.439300768704	1
0	1776	124.538467435371	0
0	1778	124.742182591759	1
0	1780	124.820233867398	2
0	1783	124.909197899714	2
0	1786	125.008364566381	0
0	1788	125.309256732407	1
0	1790	125.408423399074	0
0	1792	125.53851951406	1
0	1794	125.637686180727	0
0	1796	125.848248702331	1
0	1798	125.932130966772	2
0	1801	126.031297633439	0
0	1803	126.533223981864	1
0	1805	126.576152603293	2
0	1808	126.67531926996	0
0	1810	126.740171559205	1
0	1812	126.831483185089	2
0	1815	126.887691275429	2
0	1818	126.986857942096	0
0	1820	127.336022116817	1
0	1822	127.347759683268	2
0	1825	127.446926349935	0
0	1827	127.860746500475	1
0	1829	127.864580549905	2
0	1832	127.963747216572	0
0	1834	127.970813525007	1
0	1836	127.985794821483	2
0	1839	128.08496148815	0
0	1841	128.215783942287	1
0	1843	128.314950608954	0
0	1845	128.378323581593	1
0	1847	128.47749024826	0
0	1849	128.607317752758	1
0	1851	128.621749422079	2
0	1854	128.720916088746	0
0	1856	128.773784362499	1
0	1858	128.872951029166	0
0	1860	129.076427331655	1
0	1862	129.147519962695	2
0	1865	129.246686629362	0
0	1867	129.268967769621	1
0	1869	129.368134436288	0
0	1871	129.72945236742	1
0	1873	129.828619034087	0
0	1875	129.905162746547	1
0	1877	130.004329413214	0
0	1879	130.891411116789	1
0	1881	130.990577783456	0
0	1883	131.427434705383	1
0	1885	131.52660137205	0
0	1887	131.674743588644	1
0	1889	131.773910255311	0
0	1891	131.941938006219	1
0	1893	131.967457886427	2
0	1895	131.970803987067	2
0	1899	132.069970653734	0
0	1901	132.244857432818	1
0	1903	132.344024099485	0
0	1905	132.582741277839	1
0	1907	132.614308555495	2
0	1909	132.672295233149	2
0	1913	132.771461899816	0
0	1915	132.840559163778	1
0	1917	132.893601063729	2
0	1920	132.992767730396	0
0	1922	133.015653033916	1
0	1924	133.113632400504	2
0	1927	133.212799067171	0
0	1929	133.302277493525	1
0	1931	133.401444160192	0
0	1933	133.578617316122	1
0	1935	133.656853646395	2
0	1938	133.756020313062	0
0	1940	134.17335421721	1
0	1942	134.272520883877	0
0	1944	134.317779508642	1
0	1946	134.332964402841	2
0	1948	134.371384010824	2
0	1952	134.470550677491	0
0	1954	134.551829069085	1
0	1956	134.638047360871	2
0	1959	134.737214027538	0
0	1961	135.422294839271	1
0	1963	135.521461505938	0
0	1965	135.537769585114	1
0	1967	135.636936251781	0
0	1969	135.969995351159	1
0	1971	136.069162017826	0
0	1973	136.371712850309	1
0	1975	136.470879516976	0
0	1977	136.793001259598	1
0	1979	136.865768094045	2
0	1982	136.964934760712	0
0	1984	137.075973689993	1
0	1986	137.17514035666	0
0	1988	137.297071839438	1
0	1990	137.396238506105	0
0	1992	137.446239034634	1
0	1994	137.482037790084	2
0	1997	137.581204456751	0
0	1999	137.596149949179	1
0	2001	137.695316615846	0
0	2003	137.82256051238	1
0	2005	137.825032516411	2
0	2007	137.873511271184	2
0	2011	137.972677937851	0
0	2013	138.018035355241	1
0	2015	138.041786610759	2
0	2017	138.044332822754	2
0	2020	138.140687177322	2
0	2024	138.239853843989	0
0	2026	138.521904200013	1
0	2028	138.62107086668	0
0	2030	138.917519541864	1
0	2032	139.016686208531	0
0	2034	139.292640678417	1
0	2036	139.391807345084	0
0	2038	139.456472695632	1
0	2040	139.555639362299	0
0	2042	139.667756779018	1
0	2044	139.766923445685	0
0	2046	140.583666772031	1
0	2048	140.682833438698	0
0	2050	140.91079671943	1
0	2052	140.991810148582	2
0	2055	141.075453407111	2
0	2058	141.174620073778	0
0	2060	141.269409779689	1
0	2062	141.318221229582	2
0	2064	141.36092411751	2
0	2068	141.44263355672	2
0	2071	141.541800223387	0
0	2073	141.591005629697	1
0	2075	141.690172296364	0
0	2077	141.820861180439	1
0	2079	141.920027847106	0
0	2081	142.491022583723	1
0	2083	142.59018925039	0
0	2085	143.067622601696	1
0	2087	143.166789268363	0
0	2089	143.261803049159	1
0	2091	143.360969715826	0
0	2093	143.508144020963	1
0	2095	143.54126512242	2
0	2098	143.640431789087	0
0	2100	143.703782970051	1
0	2102	143.802949636718	0
0	2104	143.803767078454	1
0	2106	143.831812791026	2
0	2109	143.930979457693	0
0	2111	144.010799690701	1
0	2113	144.109966357368	0
0	2115	144.160525947234	1
0	2117	144.259692613901	0
0	2119	144.283336215859	1
0	2121	144.382502882526	0
0	2123	144.731878888992	1
0	2125	144.831045555659	0
0	2127	145.071033400599	1
0	2129	145.170200067266	0
0	2131	145.210221047121	1
0	2133	145.309387713788	0
0	2135	145.617285974753	1
0	2137	145.690672695567	2
0	2140	145.789839362234	0
0	2142	146.344052547984	1
0	2144	146.443219214651	0
0	2146	146.751688792408	1
0	2148	146.850855459075	0
0	2150	146.98668362332	1
0	2152	147.085850289987	0
0	2154	147.281043533207	1
0	2156	147.380210199874	0
0	2158	147.414527719192	1
0	2160	147.513694385859	0
0	2162	147.727621123244	1
0	2164	147.826787789911	0
0	2166	147.860935327223	1
0	2168	147.96010199389	0
0	2170	148.206122406045	1
0	2172	148.305289072712	0
0	2174	148.415687718757	1
0	2176	148.427074279476	2
0	2179	148.526240946143	0
0	2181	148.816366859261	1
0	2183	148.86821626792	2
0	2186	148.929425221693	2
0	2189	149.02859188836	0
0	2191	149.285333580367	1
0	2193	149.384500247034	0
0	2195	149.476362757908	1
0	2197	149.575529424575	0
0	2199	149.803248268298	1
0	2201	149.902414934965	0
0	2203	150.1175270099	1
0	2205	150.216693676567	0
0	2207	150.265845493931	1
0	2209	150.365012160598	0
0	2211	150.724888369089	1
0	2213	150.824055035756	0
0	2215	151.711559454411	1
0	2217	151.810726121078	0
0	2219	152.151428397156	1
0	2221	152.250595063823	0
0	2223	152.442355275256	1
0	2225	152.446889798831	2
0	2228	152.546056465498	0
0	2230	152.601803358618	1
0	2232	152.700970025285	0
0	2234	152.817572128493	1
0	2236	152.91673879516	0
0	2238	152.944973438253	1
0	2240	153.04414010492	0
0	2242	153.082692086557	1
0	2244	153.121179984992	2
0	2246	153.172462389043	2
0	2248	153.180795636063	2
0	2251	153.220305478655	2
0	2256	153.319472145322	0
0	2258	153.362408801556	1
0	2260	153.461575468223	0
0	2262	153.483941129691	1
0	2264	153.559448973564	2
0	2267	153.658615640231	0
0	2269	153.800875215342	1
0	2271	153.900041882009	0
0	2273	154.361974457163	1
0	2275	154.46114112383	0
0	2277	154.574043560792	1
0	2279	154.673210227459	0