version 3
run PureAlohaExperiment-26-20260306-12:10:20-8840
attr configname PureAlohaExperiment
attr datetime 20260306-12:10:20
attr datetimef 20260306-121020
attr experiment PureAlohaExperiment
attr inifile omnetpp.ini
attr iterationvars "$numHosts=15, $iaMean=9"
attr iterationvarsd numHosts=15/iaMean=9
attr iterationvarsf numHosts=15,iaMean=9-
attr measurement "$numHosts=15, $iaMean=9"
attr network Aloha
attr processid 8840
attr repetition 0
attr replication #0
attr resultdir results
attr runnumber 26
attr seedset 26
itervar iaMean 9
itervar numHosts 15
config description "Channel utilization in the function of packet generation frequency"
config repeat 2
config sim-time-limit 90min
config Aloha.numHosts 15
config Aloha.host[*].iaTime exponential(9s)
config network Aloha
config Aloha.numHosts 20
config Aloha.slotTime 0s
config Aloha.txRate 9.6kbps
config Aloha.host[*].pkLenBits 952b
config **.x "uniform(0m, 1000m)"
config **.y "uniform(0m, 1000m)"
config **.animationHoldTimeOnCollision 0s
config **.idleAnimationSpeed 1
config **.transmissionEdgeAnimationSpeed 1e-6
config **.midTransmissionAnimationSpeed 1e-1

vector 0 Aloha.server serverChannelState:vector ETV
attr enum IDLE=0,TRANSMISSION=1,COLLISION=2
attr recordingmode vector
attr source channelState
attr title "Channel state"
vector 1 Aloha.host[0] radioState:vector ETV
attr enum IDLE=0,TRANSMIT=1
attr recordingmode vector
attr source state
attr title "Radio state"
vector 2 Aloha.host[1] radioState:vector ETV
attr enum IDLE=0,TRANSMIT=1
attr recordingmode vector
attr source state
attr title "Radio state"
vector 3 Aloha.host[2] radioState:vector ETV
attr enum IDLE=0,TRANSMIT=1
attr recordingmode vector
attr source state
attr title "Radio state"
vector 4 Aloha.host[3] radioState:vector ETV
attr enum IDLE=0,TRANSMIT=1
attr recordingmode vector
attr source state
attr title "Radio state"
vector 5 Aloha.host[4] radioState:vector ETV
attr enum IDLE=0,TRANSMIT=1
attr recordingmode vector
attr source state
attr title "Radio state"
vector 6 Aloha.host[5] radioState:vector ETV
attr enum IDLE=0,TRANSMIT=1
attr recordingmode vector
attr source state
attr title "Radio state"
vector 7 Aloha.host[6] radioState:vector ETV
attr enum IDLE=0,TRANSMIT=1
attr recordingmode vector
attr source state
attr title "Radio state"
vector 8 Aloha.host[7] radioState:vector ETV
attr enum IDLE=0,TRANSMIT=1
attr recordingmode vector
attr source state
attr title "Radio state"
vector 9 Aloha.host[8] radioState:vector ETV
attr enum IDLE=0,TRANSMIT=1
attr recordingmode vector
attr source state
attr title "Radio state"
vector 10 Aloha.host[9] radioState:vector ETV
attr enum IDLE=0,TRANSMIT=1
attr recordingmode vector
attr source state
attr title "Radio state"
vector 11 Aloha.host[10] radioState:vector ETV
attr enum IDLE=0,TRANSMIT=1
attr recordingmode vector
attr source state
attr title "Radio state"
vector 12 Aloha.host[11] radioState:vector ETV
attr enum IDLE=0,TRANSMIT=1
attr recordingmode vector
attr source state
attr title "Radio state"
vector 13 Aloha.host[12] radioState:vector ETV
attr enum IDLE=0,TRANSMIT=1
attr recordingmode vector
attr source state
attr title "Radio state"
vector 14 Aloha.host[13] radioState:vector ETV
attr enum IDLE=0,TRANSMIT=1
attr recordingmode vector
attr source state
attr title "Radio state"
vector 15 Aloha.host[14] radioState:vector ETV
attr enum IDLE=0,TRANSMIT=1
attr recordingmode vector
attr source state
attr title "Radio state"
vector 16 Aloha.server channelUtilizationVector:vector ETV
attr interpolationmode linear
attr recordingmode vector
attr source timeavg(receive)
attr title "channel utilization evolution"
0	0	0	0
0	2	0.327526790172	1
0	4	0.426693456839	0
0	6	1.378176794608	1
0	8	1.477343461275	0
0	10	1.822839890694	1
0	12	1.922006557361	0
0	14	4.781138064519	1
0	16	4.880304731186	0
0	18	5.980904434537	1
0	20	6.065563739012	2
0	23	6.164730405679	0
0	25	6.923054819756	1
0	27	7.022221486423	0
0	29	7.557612184207	1
0	31	7.656778850874	0
0	33	7.889537132996	1
0	35	7.988703799663	0
0	37	9.4129652804	1
0	39	9.512131947067	0
0	41	9.544163217446	1
0	43	9.61803225763	2
0	46	9.717198924297	0
0	48	10.803607724554	1
0	50	10.902774391221	0
0	52	11.320333127861	1
0	54	11.419499794528	0
0	56	11.819598448295	1
0	58	11.918765114962	0
0	60	12.800019200654	1
0	62	12.899185867321	0
0	64	13.578086187551	1
0	66	13.677252854218	0
0	68	17.511404722733	1
0	70	17.6105713894	0
0	72	17.637063122468	1
0	74	17.736229789135	0
0	76	17.761718095055	1
0	78	17.860884761722	0
0	80	19.512436153982	1
0	82	19.611602820649	0
0	84	20.648580372072	1
0	86	20.747747038739	0
0	88	21.998826334756	1
0	90	22.097993001423	0
0	92	22.099063360106	1
0	94	22.198230026773	0
0	96	22.21675412761	1
0	98	22.315920794277	0
0	100	23.901969023084	1
0	102	24.001135689751	0
0	104	24.308653126166	1
0	106	24.407819792833	0
0	108	25.138435436312	1
0	110	25.237602102979	0
0	112	25.315315687174	1
0	114	25.395706442322	2
0	117	25.494873108989	0
0	119	26.454104815005	1
0	121	26.553271481672	0
0	123	26.717626476836	1
0	125	26.816793143503	0
0	127	26.92021613745	1
0	129	27.019382804117	0
0	131	27.173294233136	1
0	133	27.272460899803	0
0	135	29.455293937107	1
0	137	29.528082495191	2
0	140	29.627249161858	0
0	142	29.882784419861	1
0	144	29.981951086528	0
0	146	31.551152529646	1
0	148	31.650319196313	0
0	150	32.262057217156	1
0	152	32.361223883823	0
0	154	32.493556005453	1
0	156	32.526384024018	2
0	158	32.565812456235	2
0	162	32.664979122902	0
0	164	33.088872481233	1
0	166	33.1880391479	0
0	168	33.841831891263	1
0	170	33.94099855793	0
0	172	34.669576798731	1
0	174	34.768743465398	0
0	176	34.801095928503	1
0	178	34.90026259517	0
0	180	36.009804117058	1
0	182	36.108970783725	0
0	184	36.530102775399	1
0	186	36.629269442066	0
0	188	36.717271229276	1
0	190	36.816437895943	0
0	192	37.099974129113	1
0	194	37.19914079578	0
0	196	37.372751195377	1
0	198	37.471917862044	0
0	200	38.456705326246	1
0	202	38.555871992913	0
0	204	38.878462526024	1
0	206	38.966304747658	2
0	209	39.065471414325	0
0	211	39.607067299164	1
0	213	39.706233965831	0
0	215	41.361437921091	1
0	217	41.460604587758	0
0	219	41.530850082569	1
0	221	41.630016749236	0
0	223	42.447077752409	1
0	225	42.546244419076	0
0	227	44.401686582132	1
0	229	44.500853248799	0
0	231	44.656483998959	1
0	233	44.755650665626	0
0	235	46.499153379837	1
0	237	46.598320046504	0
0	239	46.965781733575	1
0	241	47.064948400242	0
0	243	47.2370784933	1
0	245	47.336245159967	0
0	247	49.124054272368	1
0	249	49.223220939035	0
0	251	51.68173469453	1
0	253	51.745522653558	2
0	256	51.781965383916	2
0	259	51.881132050583	0
0	261	52.357849607705	1
0	263	52.457016274372	0
0	265	53.703582267201	1
0	267	53.802748933868	0
0	269	54.475231177723	1
0	271	54.57439784439	0
0	273	55.339019388424	1
0	275	55.438186055091	0
0	277	56.04283605182	1
0	279	56.142002718487	0
0	281	56.552234456978	1
0	283	56.651401123645	0
0	285	56.896508342688	1
0	287	56.995675009355	0
0	289	57.330766156149	1
0	291	57.429932822816	0
0	293	57.57698395091	1
0	295	57.676150617577	0
0	297	58.289044509406	1
0	299	58.388211176073	0
0	301	58.914840848059	1
0	303	58.949141862832	2
0	306	59.048308529499	0
0	308	59.668981576803	1
0	310	59.76814824347	0
0	312	60.044580619993	1
0	314	60.14374728666	0
0	316	61.206621072016	1
0	318	61.305787738683	0
0	320	62.108297291179	1
0	322	62.207463957846	0
0	324	62.463139900938	1
0	326	62.562306567605	0
0	328	62.808676906082	1
0	330	62.907843572749	0
0	332	63.294029420945	1
0	334	63.393196087612	0
0	336	64.05844812752	1
0	338	64.120632259751	2
0	341	64.219798926418	0
0	343	64.480006463877	1
0	345	64.579173130544	0
0	347	65.381926162249	1
0	349	65.481092828916	0
0	351	66.067866298366	1
0	353	66.167032965033	0
0	355	67.089538137804	1
0	357	67.188704804471	0
0	359	67.462728902677	1
0	361	67.561895569344	0
0	363	67.609100721796	1
0	365	67.708267388463	0
0	367	68.535971045982	1
0	369	68.635137712649	0
0	371	68.782953424353	1
0	373	68.88212009102	0
0	375	69.28807294087	1
0	377	69.387239607537	0
0	379	70.575327427378	1
0	381	70.608922717671	2
0	384	70.708089384338	0
0	386	71.791467275535	1
0	388	71.890633942202	0
0	390	72.24673990607	1
0	392	72.345906572737	0
0	394	73.478759579434	1
0	396	73.577926246101	0
0	398	73.73549902393	1
0	400	73.834665690597	0
0	402	74.053142555203	1
0	404	74.15230922187	0
0	406	74.563759115419	1
0	408	74.662925782086	0
0	410	76.216715934646	1
0	412	76.315882601313	0
0	414	76.950150545961	1
0	416	76.979286254258	2
0	419	77.078452920925	0
0	421	77.380815668592	1
0	423	77.479982335259	0
0	425	77.955148293294	1
0	427	78.054314959961	0
0	429	78.058094787428	1
0	431	78.157261454095	0
0	433	78.442939957212	1
0	435	78.542106623879	0
0	437	79.245612558873	1
0	439	79.34477922554	0
0	441	79.735117840903	1
0	443	79.83428450757	0
0	445	80.066818114187	1
0	447	80.165984780854	0
0	449	80.466784889847	1
0	451	80.565951556514	0
0	453	80.571648879139	1
0	455	80.670815545806	0
0	457	81.396101263962	1
0	459	81.495267930629	0
0	461	81.702153468634	1
0	463	81.801320135301	0
0	465	81.880973163214	1
0	467	81.980139829881	0
0	469	82.684584446448	1
0	471	82.783751113115	0
0	473	83.245462071768	1
0	475	83.344628738435	0
0	477	83.656246991675	1
0	479	83.755413658342	0
0	481	84.402481770945	1
0	483	84.501648437612	0
0	485	84.547628726366	1
0	487	84.646795393033	0
0	489	84.784865203163	1
0	491	84.88403186983	0
0	493	86.121315738289	1
0	495	86.220482404956	0
0	497	86.240628066628	1
0	499	86.339794733295	0
0	501	87.253520782448	1
0	503	87.352687449115	0
0	505	87.627102988534	1
0	507	87.726269655201	0
0	509	88.619470468625	1
0	511	88.718637135292	0
0	513	89.897632460424	1
0	515	89.996799127091	0
0	517	90.069539907818	1
0	519	90.168706574485	0
0	521	90.568208244892	1
0	523	90.667374911559	0
0	525	90.807446984314	1
0	527	90.906613650981	0
0	529	91.289109101367	1
0	531	91.388275768034	0
0	533	91.784530810736	1
0	535	91.883697477403	0
0	537	92.078592540405	1
0	539	92.177759207072	0
0	541	93.255834005828	1
0	543	93.355000672495	0
0	545	94.552064378957	1
0	547	94.651231045624	0
0	549	94.772942940652	1
0	551	94.872109607319	0
0	553	95.737709279097	1
0	555	95.836875945764	0
0	557	96.239681410575	1
0	559	96.338848077242	0
0	561	98.710464769481	1
0	563	98.809631436148	0
0	565	99.058904849063	1
0	567	99.15807151573	0
0	569	100.035211860161	1
0	571	100.134378526828	0
0	573	100.172094467764	1
0	575	100.271261134431	0
0	577	100.39558032095	1
0	579	100.494746987617	0
0	581	100.519725485768	1
0	583	100.618892152435	0
0	585	100.704181956078	1
0	587	100.803348622745	0
0	589	101.257842361947	1
0	591	101.357009028614	0
0	593	101.788762847737	1
0	595	101.887929514404	0
0	597	102.346929185457	1
0	599	102.407660759905	2
0	602	102.506827426572	0
0	604	103.16862266325	1
0	606	103.267789329917	0
0	608	104.264419130258	1
0	610	104.363585796925	0
0	612	104.409099475218	1
0	614	104.508266141885	0
0	616	104.517425448657	1
0	618	104.616592115324	0
0	620	105.219940013318	1
0	622	105.319106679985	0
0	624	106.026540769481	1
0	626	106.125707436148	0
0	628	106.288111155145	1
0	630	106.387277821812	0
0	632	106.819901533108	1
0	634	106.919068199775	0
0	636	107.360821769265	1
0	638	107.459988435932	0
0	640	108.363553185352	1
0	642	108.462719852019	0
0	644	108.699261789839	1
0	646	108.798428456506	0
0	648	108.969925686996	1
0	650	109.040198655784	2
0	652	109.053865708149	2
0	656	109.153032374816	0
0	658	109.804724148967	1
0	660	109.821112799681	2
0	662	109.871310159706	2
0	666	109.970476826373	0
0	668	110.316451415089	1
0	670	110.415618081756	0
0	672	110.764422597187	1
0	674	110.863589263854	0
0	676	111.023557105371	1
0	678	111.122723772038	0
0	680	111.576601911823	1
0	682	111.622097394919	2
0	685	111.721264061586	0
0	687	112.661179669499	1
0	689	112.760346336166	0
0	691	112.79051936806	1
0	693	112.889686034727	0
0	695	113.168074376592	1
0	697	113.187870873085	2
0	700	113.287037539752	0
0	702	113.441363632378	1
0	704	113.540530299045	0
0	706	117.526380977	1
0	708	117.529242333731	2
0	711	117.628409000398	0
0	713	118.04208414598	1
0	715	118.141250812647	0
0	717	118.214300252573	1
0	719	118.31346691924	0
0	721	119.183756761175	1
0	723	119.282923427842	0
0	725	119.331842132564	1
0	727	119.431008799231	0
0	729	119.598548343548	1
0	731	119.697715010215	0
0	733	119.737534461979	1
0	735	119.836701128646	0
0	737	121.124303405045	1
0	739	121.223470071712	0
0	741	122.165500378293	1
0	743	122.26466704496	0
0	745	122.803165554581	1
0	747	122.902332221248	0
0	749	123.43145569714	1
0	751	123.530622363807	0
0	753	123.579711225805	1
0	755	123.646405648162	2
0	758	123.745572314829	0
0	760	123.754097656796	1
0	762	123.853264323463	0
0	764	124.139934519582	1
0	766	124.239101186249	0
0	768	124.880397982033	1
0	770	124.9795646487	0
0	772	127.110114769015	1
0	774	127.209281435682	0
0	776	129.230038408679	1
0	778	129.329205075346	0
0	780	130.94411214595	1
0	782	131.043278812617	0
0	784	132.197272601717	1
0	786	132.296439268384	0
0	788	132.432026433316	1
0	790	132.531193099983	0
0	792	132.582937098418	1
0	794	132.650291076423	2
0	797	132.74945774309	0
0	799	133.60648171943	1
0	801	133.705648386097	0
0	803	133.965139077842	1
0	805	134.064305744509	0
0	807	134.702138697777	1
0	809	134.789429256372	2
0	812	134.888595923039	0
0	814	136.028044775139	1
0	816	136.127211441806	0
0	818	136.668959206395	1
0	820	136.746887311783	2
0	823	136.808644455811	2
0	826	136.907811122478	0
0	828	136.960755528911	1
0	830	137.059922195578	0
0	832	137.860886016728	1
0	834	137.960052683395	0
0	836	138.496782237399	1
0	838	138.595948904066	0
0	840	138.914293198339	1
0	842	139.013459865006	0
0	844	139.343148500014	1
0	846	139.442315166681	0
0	848	139.502557191242	1
0	850	139.601723857909	0
0	852	141.324314580023	1
0	854	141.42348124669	0
0	856	141.983292988105	1
0	858	142.082459654772	0
0	860	143.042544454966	1
0	862	143.126609479439	2
0	865	143.225776146106	0
0	867	144.225411169657	1
0	869	144.324577836324	0
0	871	144.969193925586	1
0	873	145.068360592253	0
0	875	145.68526304922	1
0	877	145.784429715887	0
0	879	145.881324650361	1
0	881	145.980491317028	0
0	883	146.770890645827	1
0	885	146.870057312494	0
0	887	147.095240253874	1
0	889	147.130641404887	2
0	892	147.229808071554	0
0	894	147.566291842682	1
0	896	147.665458509349	0
0	898	147.88690942466	1
0	900	147.986076091327	0
0	902	148.038943263273	1
0	904	148.13810992994	0
0	906	148.557394644896	1
0	908	148.656561311563	0
0	910	148.796624844283	1
0	912	148.89579151095	0
0	914	149.15068714518	1
0	916	149.249853811847	0
0	918	149.381182531986	1
0	920	149.480349198653	0
0	922	150.534651832426	1
0	924	150.633818499093	0
0	926	150.765511356583	1
0	928	150.86467802325	0
0	930	150.907706012553	1
0	932	151.00687267922	0
0	934	151.162802505024	1
0	936	151.174388659926	2
0	939	151.273555326593	0
0	941	152.112687432273	1
0	943	152.21185409894	0
0	945	152.891345031501	1
0	947	152.978640815153	2
0	950	153.07780748182	0
0	952	153.948258150061	1
0	954	154.047424816728	0
0	956	154.400511105881	1
0	958	154.499677772548	0
0	960	154.793991183121	1
0	962	154.893157849788	0
0	964	156.605555034442	1
0	966	156.704721701109	0
0	968	157.573789652862	1
0	970	157.672956319529	0
0	972	158.012460539008	1
0	974	158.111627205675	0
0	976	158.1645114083	1
0	978	158.263678074967	0
0	980	158.992985802535	1
0	982	159.010000803667	2
0	985	159.109167470334	0
0	987	159.134306057797	1
0	989	159.17947904121	2
0	992	159.278645707877	0
0	994	159.665621335421	1
0	996	159.764788002088	0
0	998	160.906851144022	1
0	1000	161.000139244579	2
0	1003	161.099305911246	0
0	1005	161.298418675549	1
0	1007	161.397585342216	0
0	1009	163.676904235707	1
0	1011	163.776070902374	0
0	1013	164.123598333862	1
0	1015	164.222765000529	0
0	1017	165.463837606328	1
0	1019	165.563004272995	0
0	1021	165.83291040222	1
0	1023	165.892398368046	2
0	1026	165.959679771688	2
0	1029	166.017556830798	2
0	1032	166.116723497465	0
0	1034	166.70985775658	1
0	1036	166.809024423247	0
0	1038	167.18348466656	1
0	1040	167.282651333227	0
0	1042	170.369492818287	1
0	1044	170.468659484954	0
0	1046	170.502064288461	1
0	1048	170.601230955128	0
0	1050	172.141768651304	1
0	1052	172.161246699977	2
0	1055	172.260413366644	0
0	1057	172.306421819235	1
0	1059	172.405588485902	0
0	1061	173.510752004836	1
0	1063	173.609918671503	0
0	1065	174.203673622158	1
0	1067	174.302840288825	0
0	1069	174.367304661404	1
0	1071	174.466471328071	0
0	1073	175.928074059824	1
0	1075	176.027240726491	0
0	1077	176.351431438934	1
0	1079	176.450598105601	0
0	1081	176.582138236611	1
0	1083	176.681304903278	0
0	1085	177.044740599462	1
0	1087	177.143907266129	0
0	1089	179.006330166752	1
0	1091	179.105496833419	0
0	1093	179.563178485453	1
0	1095	179.66234515212	0
0	1097	181.733680777222	1
0	1099	181.832847443889	0
0	1101	182.254345275185	1
0	1103	182.353511941852	0
0	1105	182.846661375182	1
0	1107	182.945828041849	0
0	1109	183.750849033254	1
0	1111	183.850015699921	0
0	1113	185.803059609228	1
0	1115	185.902226275895	0
0	1117	186.0065242224	1
0	1119	186.105690889067	0
0	1121	186.588114864075	1
0	1123	186.687281530742	0
0	1125	188.191245183509	1
0	1127	188.290411850176	0
0	1129	188.392385157432	1
0	1131	188.491551824099	0
0	1133	188.656394315753	1
0	1135	188.75556098242	0
0	1137	189.237940033061	1
0	1139	189.337106699728	0
0	1141	189.644532789557	1
0	1143	189.743699456224	0
0	1145	190.633185853149	1
0	1147	190.732352519816	0
0	1149	190.857388110544	1
0	1151	190.956554777211	0
0	1153	191.430589368896	1
0	1155	191.529756035563	0
0	1157	191.6589453408	1
0	1159	191.758112007467	0
0	1161	192.293245749766	1
0	1163	192.392412416433	0
0	1165	192.816825735922	1
0	1167	192.915992402589	0
0	1169	192.974796852195	1
0	1171	193.073963518862	0
0	1173	193.499285270694	1
0	1175	193.598451937361	0
0	1177	195.044579922482	1
0	1179	195.143746589149	0
0	1181	196.220730478651	1
0	1183	196.319897145318	0
0	1185	197.065216261219	1
0	1187	197.164382927886	0
0	1189	197.899645675387	1
0	1191	197.957265399531	2
0	1194	198.024258257268	2
0	1197	198.123424923935	0
0	1199	198.475085814388	1
0	1201	198.574252481055	0
0	1203	199.300648756176	1
0	1205	199.399815422843	0
0	1207	199.629636603422	1
0	1209	199.728803270089	0
0	1211	200.103515835319	1
0	1213	200.202682501986	0
0	1215	201.31679229217	1
0	1217	201.415958958837	0
0	1219	201.513780691076	1
0	1221	201.612947357743	0
0	1223	201.841099380764	1
0	1225	201.940266047431	0
0	1227	202.577541478125	1
0	1229	202.676708144792	0
0	1231	204.001290418024	1
0	1233	204.100457084691	0
0	1235	205.980108494159	1
0	1237	206.079275160826	0
0	1239	206.305986751187	1
0	1241	206.405153417854	0
0	1243	207.283548585134	1
0	1245	207.381919120666	2
0	1248	207.481085787333	0
0	1250	207.680372216995	1
0	1252	207.743233061703	2
0	1255	207.84239972837	0
0	1257	208.762754231532	1
0	1259	208.861920898199	0
0	1261	209.316441965742	1
0	1263	209.415608632409	0
0	1265	209.994439279119	1
0	1267	210.093605945786	0
0	1269	210.404739664249	1
0	1271	210.503906330916	0
0	1273	210.832283649418	1
0	1275	210.931450316085	0
0	1277	212.127466734988	1
0	1279	212.226633401655	0
0	1281	212.293205533777	1
0	1283	212.392372200444	0
0	1285	213.911362272313	1
0	1287	213.92675847307	2
0	1290	214.025925139737	0
0	1292	214.341996003805	1
0	1294	214.441162670472	0
0	1296	214.759338050162	1
0	1298	214.858504716829	0
0	1300	215.170823212528	1
0	1302	215.269989879195	0
0	1304	215.583282614699	1
0	1306	215.682449281366	0
0	1308	215.893734932397	1
0	1310	215.992901599064	0
0	1312	216.035661347096	1
0	1314	216.091252222736	2
0	1317	216.190418889403	0
0	1319	216.549682595786	1
0	1321	216.648849262453	0
0	1323	217.398072050273	1
0	1325	217.49723871694	0
0	1327	217.678711201672	1
0	1329	217.777877868339	0
0	1331	217.843318403061	1
0	1333	217.942485069728	0
0	1335	218.007018135449	1
0	1337	218.106184802116	0
0	1339	218.622893320819	1
0	1341	218.722059987486	0
0	1343	219.570109129976	1
0	1345	219.669275796643	0
0	1347	220.154823395592	1
0	1349	220.253990062259	0
0	1351	222.142808085256	1
0	1353	222.241974751923	0
0	1355	222.279912546421	1
0	1357	222.379079213088	0
0	1359	223.109108727129	1
0	1361	223.208275393796	0
0	1363	223.833210054875	1
0	1365	223.932376721542	0
0	1367	223.954303059801	1
0	1369	223.986859497349	2
0	1372	224.086026164016	0
0	1374	224.278967276781	1
0	1376	224.378133943448	0
0	1378	225.035761548357	1
0	1380	225.134928215024	0
0	1382	225.706352010885	1
0	1384	225.805518677552	0
0	1386	225.840525147767	1
0	1388	225.939691814434	0
0	1390	225.992477158365	1
0	1392	226.091643825032	0
0	1394	228.127578884729	1
0	1396	228.226745551396	0
0	1398	228.786215776651	1
0	1400	228.885382443318	0
0	1402	229.585854065482	1
0	1404	229.685020732149	0
0	1406	229.867391177338	1
0	1408	229.966557844005	0
0	1410	231.37029945789	1
0	1412	231.469466124557	0
0	1414	231.658974482236	1
0	1416	231.666166169773	2
0	1419	231.76533283644	0
0	1421	231.809250895126	1
0	1423	231.908417561793	0
0	1425	232.451347284834	1
0	1427	232.550513951501	0
0	1429	233.146742242042	1
0	1431	233.187840488995	2
0	1433	233.236398399397	2
0	1437	233.335565066064	0
0	1439	234.237256553151	1
0	1441	234.336423219818	0
0	1443	234.665815476381	1
0	1445	234.764982143048	0
0	1447	235.238512447003	1
0	1449	235.293123770476	2
0	1452	235.392290437143	0
0	1454	235.981785251068	1
0	1456	236.080951917735	0
0	1458	236.907783935625	1
0	1460	236.918412614821	2
0	1463	237.017579281488	0
0	1465	237.281505437794	1
0	1467	237.380672104461	0
0	1469	237.501469004796	1
0	1471	237.600635671463	0
0	1473	237.614975898915	1
0	1475	237.651732335584	2
0	1478	237.750899002251	0
0	1480	238.338677029489	1
0	1482	238.437843696156	0
0	1484	239.290800903948	1
0	1486	239.389967570615	0
0	1488	240.714093652401	1
0	1490	240.813260319068	0
0	1492	240.991066341025	1
0	1494	241.090233007692	0
0	1496	241.170910939196	1
0	1498	241.270077605863	0
0	1500	241.571717041903	1
0	1502	241.67088370857	0
0	1504	242.256156875308	1
0	1506	242.355323541975	0
0	1508	243.057349474717	1
0	1510	243.156516141384	0
0	1512	245.115842806638	1
0	1514	245.215009473305	0
0	1516	245.467213534998	1
0	1518	245.566380201665	0
0	1520	246.954237195867	1
0	1522	247.053403862534	0
0	1524	247.89243944324	1
0	1526	247.991606109907	0
0	1528	248.077091383675	1
0	1530	248.176258050342	0
0	1532	248.547187804543	1
0	1534	248.64635447121	0
0	1536	249.035882772854	1
0	1538	249.135049439521	0
0	1540	249.478126321611	1
0	1542	249.577292988278	0
0	1544	250.92916280808	1
0	1546	251.028329474747	0
0	1548	251.722181477934	1
0	1550	251.821348144601	0
0	1552	252.150549506498	1
0	1554	252.249716173165	0
0	1556	252.392367232413	1
0	1558	252.49153389908	0
0	1560	252.798896273214	1
0	1562	252.898062939881	0
0	1564	253.55980080261	1
0	1566	253.658967469277	0
0	1568	253.710684434016	1
0	1570	253.809851100683	0
0	1572	254.424095904136	1
0	1574	254.523262570803	0
0	1576	256.300354080983	1
0	1578	256.39952074765	0
0	1580	256.642719193446	1
0	1582	256.741885860113	0
0	1584	256.834411358221	1
0	1586	256.86369145802	2
0	1588	256.89502294028	2
0	1592	256.994189606947	0
0	1594	257.666615677916	1
0	1596	257.765782344583	0
0	1598	257.832013755763	1
0	1600	257.93118042243	0
0	1602	258.208800902175	1
0	1604	258.307967568842	0
0	1606	259.308260110048	1
0	1608	259.407426776715	0
0	1610	259.525693812229	1
0	1612	259.571977497762	2
0	1615	259.671144164429	0
0	1617	260.158538920172	1
0	1619	260.257705586839	0
0	1621	260.655546078532	1
0	1623	260.754712745199	0
0	1625	261.404961497209	1
0	1627	261.504128163876	0
0	1629	261.828950180039	1
0	1631	261.928116846706	0
0	1633	263.133508113106	1
0	1635	263.232674779773	0
0	1637	263.289798949336	1
0	1639	263.388965616003	0
0	1641	264.026879992067	1
0	1643	264.126046658734	0
0	1645	264.303128238065	1
0	1647	264.402294904732	0
0	1649	264.51398384987	1
0	1651	264.613150516537	0
0	1653	264.917639324631	1
0	1655	265.016805991298	0
0	1657	266.705737235699	1
0	1659	266.804903902366	0
0	1661	267.031192392542	1
0	1663	267.130359059209	0
0	1665	267.523447757551	1
0	1667	267.622614424218	0
0	1669	268.252832024332	1
0	1671	268.351998690999	0
0	1673	270.65068265263	1
0	1675	270.746471338817	2
0	1678	270.845638005484	0
0	1680	270.904295688324	1
0	1682	270.960891108241	2
0	1684	270.974545092304	2
0	1688	271.073711758971	0
0	1690	273.239516834548	1
0	1692	273.338683501215	0
0	1694	273.880191466344	1
0	1696	273.979358133011	0
0	1698	274.96526844819	1
0	1700	275.064435114857	0
0	1702	275.107540125145	1
0	1704	275.206706791812	0
0	1706	275.798739442522	1
0	1708	275.897906109189	0
0	1710	278.106268037429	1
0	1712	278.205434704096	0
0	1714	278.715707612305	1
0	1716	278.814874278972	0
0	1718	278.949517837451	1
0	1720	279.048684504118	0
0	1722	279.22778244692	1
0	1724	279.326949113587	0
0	1726	279.604208171653	1
0	1728	279.70337483832	0
0	1730	279.918103916917	1
0	1732	280.017270583584	0
0	1734	280.497920932232	1
0	1736	280.597087598899	0
0	1738	280.65026260722	1
0	1740	280.749429273887	0
0	1742	281.280868099418	1
0	1744	281.380034766085	0
0	1746	281.805525085471	1
0	1748	281.904691752138	0
0	1750	282.042940375353	1
0	1752	282.14210704202	0
0	1754	282.686136212436	1
0	1756	282.785302879103	0
0	1758	282.878987957871	1
0	1760	282.953382002654	2
0	1763	283.052548669321	0
0	1765	283.578620386906	1
0	1767	283.677787053573	0
0	1769	283.758886635739	1
0	1771	283.858053302406	0
0	1773	284.853667771718	1
0	1775	284.952834438385	0
0	1777	285.064135668842	1
0	1779	285.163302335509	0
0	1781	285.336709930731	1
0	1783	285.435876597398	0
0	1785	285.64899073898	1
0	1787	285.748157405647	0
0	1789	286.085415364286	1
0	1791	286.184582030953	0
0	1793	288.216817916697	1
0	1795	288.315984583364	0
0	1797	288.571802963612	1
0	1799	288.639364524462	2
0	1802	288.738531191129	0
0	1804	289.779311818296	1
0	1806	289.878478484963	0
0	1808	290.315531878444	1
0	1810	290.414698545111	0
0	1812	290.712435159356	1
0	1814	290.811601826023	0
0	1816	291.298115550169	1
0	1818	291.397282216836	0
0	1820	292.165516156434	1
0	1822	292.264682823101	0
0	1824	292.614431788669	1
0	1826	292.713598455336	0
0	1828	294.587073628245	1
0	1830	294.686240294912	0
0	1832	295.019995698452	1
0	1834	295.119162365119	0
0	1836	295.343220621417	1
0	1838	295.442387288084	0
0	1840	295.999665933042	1
0	1842	296.098832599709	0
0	1844	296.582724229639	1
0	1846	296.585768675524	2
0	1849	296.684935342191	0
0	1851	296.804112006232	1
0	1853	296.903278672899	0
0	1855	297.100585144434	1
0	1857	297.134107491977	2
0	1859	297.159939394988	2
0	1863	297.259106061655	0
0	1865	297.320002536998	1
0	1867	297.419169203665	0
0	1869	298.100149257535	1
0	1871	298.199315924202	0
0	1873	298.694988802711	1
0	1875	298.794155469378	0
0	1877	299.540386184957	1
0	1879	299.639552851624	0
0	1881	299.882572945121	1
0	1883	299.981739611788	0
0	1885	300.302160036434	1
0	1887	300.401326703101	0
0	1889	300.465241962032	1
0	1891	300.564408628699	0
0	1893	300.566009200973	1
0	1895	300.652558261703	2
0	1898	300.75172492837	0
0	1900	302.98548182107	1
0	1902	303.084648487737	0
0	1904	303.422886800566	1
0	1906	303.451759276103	2
0	1908	303.49353381324	2
0	1912	303.592700479907	0
0	1914	303.855749368766	1
0	1916	303.954916035433	0
0	1918	304.135397773929	1
0	1920	304.1997449012	2
0	1923	304.298911567867	0
0	1925	304.306177355276	1
0	1927	304.405344021943	0
0	1929	305.102327840949	1
0	1931	305.201494507616	0
0	1933	305.713964836952	1
0	1935	305.813131503619	0
0	1937	306.519505016594	1
0	1939	306.618671683261	0
0	1941	306.843550463742	1
0	1943	306.942717130409	0
0	1945	307.208906079492	1
0	1947	307.308072746159	0
0	1949	307.533696451321	1
0	1951	307.632863117988	0
0	1953	307.961336390331	1
0	1955	308.060503056998	0
0	1957	308.325930554509	1
0	1959	308.425097221176	0
0	1961	308.647958556999	1
0	1963	308.747125223666	0
0	1965	309.369804108385	1
0	1967	309.468970775052	0
0	1969	310.423138593488	1
0	1971	310.431360407818	2
0	1974	310.530527074485	0
0	1976	310.676728847114	1
0	1978	310.775895513781	0
0	1980	311.715509832327	1
0	1982	311.814676498994	0
0	1984	313.679037296819	1
0	1986	313.778203963486	0
0	1988	314.330777849368	1
0	1990	314.429944516035	0
0	1992	314.591819929818	1
0	1994	314.690986596485	0
0	1996	317.192961702177	1
0	1998	317.292128368844	0
0	2000	317.397864142565	1
0	2002	317.497030809232	0
0	2004	318.546978532959	1
0	2006	318.636966622796	2
0	2009	318.736133289463	0
0	2011	318.929682171913	1
0	2013	318.984001106641	2
0	2016	319.083167773308	0
0	2018	319.582784859405	1
0	2020	319.681951526072	0
0	2022	319.944041192938	1
0	2024	320.043207859605	0
0	2026	320.519200105644	1
0	2028	320.618366772311	0
0	2030	321.256283088823	1
0	2032	321.35544975549	0
0	2034	321.99063477083	1
0	2036	322.089801437497	0
0	2038	323.286660152049	1
0	2040	323.385826818716	0
0	2042	323.53760797722	1
0	2044	323.636774643887	0
0	2046	323.903401271472	1
0	2048	324.002567938139	0
0	2050	325.790372656061	1
0	2052	325.889539322728	0
0	2054	326.618312596641	1
0	2056	326.717479263308	0
0	2058	327.038493529981	1
0	2060	327.137660196648	0
0	2062	327.38308940279	1
0	2064	327.482256069457	0
0	2066	328.340300393042	1
0	2068	328.439467059709	0
0	2070	328.548538191936	1
0	2072	328.647704858603	0
0	2074	328.941827827432	1
0	2076	329.040994494099	0
0	2078	329.266672048907	1
0	2080	329.365838715574	0
0	2082	331.352348345708	1
0	2084	331.451515012375	0
0	2086	331.801588763201	1
0	2088	331.900755429868	0
0	2090	332.086574688859	1
0	2092	332.185741355526	0
0	2094	332.464090708037	1
0	2096	332.563257374704	0
0	2098	332.952239123396	1
0	2100	332.994432461626	2
0	2103	333.093599128293	0
0	2105	333.197374990673	1
0	2107	333.215289320504	2
0	2110	333.314455987171	0
0	2112	333.315179046177	1
0	2114	333.414345712844	0
0	2116	333.426586773822	1
0	2118	333.525753440489	0
0	2120	335.346941105308	1
0	2122	335.446107771975	0
0	2124	335.480810705049	1
0	2126	335.57012767163	2
0	2129	335.669294338297	0
0	2131	336.713737485016	1
0	2133	336.812904151683	0
0	2135	337.098636843757	1
0	2137	337.197803510424	0
0	2139	337.500885429921	1
0	2141	337.600052096588	0
0	2143	338.256271383297	1
0	2145	338.355438049964	0
0	2147	338.735621565727	1
0	2149	338.834788232394	0
0	2151	338.924106992676	1
0	2153	338.931604461454	2
0	2156	339.030771128121	0
0	2158	339.912191964547	1
0	2160	340.011358631214	0
0	2162	340.998627000756	1
0	2164	341.097793667423	0
0	2166	341.100243150517	1
0	2168	341.199409817184	0
0	2170	341.934991091253	1