version 3
run PureAlohaExperiment-7-20260306-12:10:16-8840
attr configname PureAlohaExperiment
attr datetime 20260306-12:10:16
attr datetimef 20260306-121016
attr experiment PureAlohaExperiment
attr inifile omnetpp.ini
attr iterationvars "$numHosts=10, $iaMean=4"
attr iterationvarsd numHosts=10/iaMean=4
attr iterationvarsf numHosts=10,iaMean=4-
attr measurement "$numHosts=10, $iaMean=4"
attr network Aloha
attr processid 8840
attr repetition 1
attr replication #1
attr resultdir results
attr runnumber 7
attr seedset 7
itervar iaMean 4
itervar numHosts 10
config description "Channel utilization in the function of packet generation frequency"
config repeat 2
config sim-time-limit 90min
config Aloha.numHosts 10
config Aloha.host[*].iaTime exponential(4s)
config network Aloha
config Aloha.numHosts 20
config Aloha.slotTime 0s
config Aloha.txRate 9.6kbps
config Aloha.host[*].pkLenBits 952b
config **.x "uniform(0m, 1000m)"
config **.y "uniform(0m, 1000m)"
config **.animationHoldTimeOnCollision 0s
config **.idleAnimationSpeed 1
config **.transmissionEdgeAnimationSpeed 1e-6
config **.midTransmissionAnimationSpeed 1e-1

vector 0 Aloha.server serverChannelState:vector ETV
attr enum IDLE=0,TRANSMISSION=1,COLLISION=2
attr recordingmode vector
attr source channelState
attr title "Channel state"
vector 1 Aloha.host[0] radioState:vector ETV
attr enum IDLE=0,TRANSMIT=1
attr recordingmode vector
attr source state
attr title "Radio state"
vector 2 Aloha.host[1] radioState:vector ETV
attr enum IDLE=0,TRANSMIT=1
attr recordingmode vector
attr source state
attr title "Radio state"
vector 3 Aloha.host[2] radioState:vector ETV
attr enum IDLE=0,TRANSMIT=1
attr recordingmode vector
attr source state
attr title "Radio state"
vector 4 Aloha.host[3] radioState:vector ETV
attr enum IDLE=0,TRANSMIT=1
attr recordingmode vector
attr source state
attr title "Radio state"
vector 5 Aloha.host[4] radioState:vector ETV
attr enum IDLE=0,TRANSMIT=1
attr recordingmode vector
attr source state
attr title "Radio state"
vector 6 Aloha.host[5] radioState:vector ETV
attr enum IDLE=0,TRANSMIT=1
attr recordingmode vector
attr source state
attr title "Radio state"
vector 7 Aloha.host[6] radioState:vector ETV
attr enum IDLE=0,TRANSMIT=1
attr recordingmode vector
attr source state
attr title "Radio state"
vector 8 Aloha.host[7] radioState:vector ETV
attr enum IDLE=0,TRANSMIT=1
attr recordingmode vector
attr source state
attr title "Radio state"
vector 9 Aloha.host[8] radioState:vector ETV
attr enum IDLE=0,TRANSMIT=1
attr recordingmode vector
attr source state
attr title "Radio state"
vector 10 Aloha.host[9] radioState:vector ETV
attr enum IDLE=0,TRANSMIT=1
attr recordingmode vector
attr source state
attr title "Radio state"
vector 11 Aloha.server channelUtilizationVector:vector ETV
attr interpolationmode linear
attr recordingmode vector
attr source timeavg(receive)
attr title "channel utilization evolution"
0	0	0	0
0	2	0.272844303997	1
0	4	0.372010970664	0
0	6	1.332078168761	1
0	8	1.359528174147	2
0	11	1.458694840814	0
0	13	1.606926624435	1
0	15	1.706093291102	0
0	17	1.918221931736	1
0	19	1.996528820621	2
0	22	2.095695487288	0
0	24	3.129671044933	1
0	26	3.2288377116	0
0	28	3.314106650206	1
0	30	3.329695536578	2
0	33	3.428862203245	0
0	35	3.865519700028	1
0	37	3.964686366695	0
0	39	4.462838628065	1
0	41	4.487489447694	2
0	44	4.586656114361	0
0	46	4.737096480951	1
0	48	4.836263147618	0
0	50	5.141601855868	1
0	52	5.240768522535	0
0	54	5.883295933496	1
0	56	5.982462600163	0
0	58	6.00566605908	1
0	60	6.104832725747	0
0	62	6.513242691262	1
0	64	6.612409357929	0
0	66	7.099518119145	1
0	68	7.198684785812	0
0	70	8.970673049173	1
0	72	9.06983971584	0
0	74	9.163092893249	1
0	76	9.262259559916	0
0	78	9.613759371635	1
0	80	9.641486751963	2
0	83	9.74065341863	0
0	85	11.645077006313	1
0	87	11.682906831526	2
0	90	11.782073498193	0
0	92	12.209808157691	1
0	94	12.308974824358	0
0	96	12.316263310195	1
0	98	12.361993195568	2
0	101	12.461159862235	0
0	103	12.67734246563	1
0	105	12.72394494296	2
0	108	12.823111609627	0
0	110	13.200058300485	1
0	112	13.274919485479	2
0	115	13.374086152146	0
0	117	13.551473205155	1
0	119	13.650639871822	0
0	121	13.740005052574	1
0	123	13.839171719241	0
0	125	14.983749249244	1
0	127	15.082915915911	0
0	129	15.702483167309	1
0	131	15.801649833976	0
0	133	15.935266332949	1
0	135	16.034432999616	0
0	137	16.073475870572	1
0	139	16.172642537239	0
0	141	16.205639017414	1
0	143	16.304805684081	0
0	145	16.555307352807	1
0	147	16.654474019474	0
0	149	16.731682480271	1
0	151	16.830849146938	0
0	153	17.295984231645	1
0	155	17.395150898312	0
0	157	17.455239837215	1
0	159	17.554406503882	0
0	161	17.599505908274	1
0	163	17.698672574941	0
0	165	17.749918919105	1
0	167	17.849085585772	0
0	169	17.994776324525	1
0	171	18.093942991192	0
0	173	18.297325876335	1
0	175	18.396492543002	0
0	177	18.397414369432	1
0	179	18.496581036099	0
0	181	18.640825947103	1
0	183	18.73999261377	0
0	185	19.012435458545	1
0	187	19.088800801998	2
0	190	19.187967468665	0
0	192	19.196865814907	1
0	194	19.206152166849	2
0	197	19.305318833516	0
0	199	19.788707600494	1
0	201	19.887874267161	0
0	203	20.790786747825	1
0	205	20.889953414492	0
0	207	21.037534661807	1
0	209	21.136701328474	0
0	211	21.494319868821	1
0	213	21.523679597923	2
0	216	21.62284626459	0
0	218	22.219107870275	1
0	220	22.318274536942	0
0	222	22.357496772164	1
0	224	22.456663438831	0
0	226	22.987072871049	1
0	228	23.086239537716	0
0	230	23.250402034575	1
0	232	23.349568701242	0
0	234	23.933085410061	1
0	236	24.032252076728	0
0	238	24.080877759287	1
0	240	24.172634816064	2
0	243	24.271801482731	0
0	245	24.59027301645	1
0	247	24.689439683117	0
0	249	25.256586573474	1
0	251	25.355753240141	0
0	253	25.48043485682	1
0	255	25.48544708587	2
0	258	25.584613752537	0
0	260	27.013251598648	1
0	262	27.037896247745	2
0	265	27.137062914412	0
0	267	27.166980599476	1
0	269	27.266147266143	0
0	271	27.538882342816	1
0	273	27.638049009483	0
0	275	29.307733259027	1
0	277	29.406899925694	0
0	279	29.489812828376	1
0	281	29.588979495043	0
0	283	29.941418607003	1
0	285	30.04058527367	0
0	287	30.226541211623	1
0	289	30.32570787829	0
0	291	30.582977092692	1
0	293	30.682143759359	0
0	295	30.985146766107	1
0	297	31.084313432774	0
0	299	31.525459463714	1
0	301	31.542804602254	2
0	304	31.630337723494	2
0	307	31.729504390161	0
0	309	31.746389318056	1
0	311	31.845555984723	0
0	313	32.116703882574	1
0	315	32.215870549241	0
0	317	32.825937948472	1
0	319	32.925104615139	0
0	321	33.000753918856	1
0	323	33.099920585523	0
0	325	33.162427381328	1
0	327	33.261594047995	0
0	329	33.43154143366	1
0	331	33.530708100327	0
0	333	33.655938337334	1
0	335	33.755105004001	0
0	337	33.868755999093	1
0	339	33.96792266576	0
0	341	34.161269482734	1
0	343	34.260436149401	0
0	345	36.043556010265	1
0	347	36.072175494413	2
0	350	36.17134216108	0
0	352	36.949290352483	1
0	354	37.04845701915	0
0	356	37.159023441774	1
0	358	37.258190108441	0
0	360	37.266825381194	1
0	362	37.365992047861	0
0	364	37.877615248197	1
0	366	37.92590072815	2
0	369	38.025067394817	0
0	371	38.295730300779	1
0	373	38.394896967446	0
0	375	38.843601170761	1
0	377	38.942767837428	0
0	379	39.013295425689	1
0	381	39.092561890177	2
0	384	39.191728556844	0
0	386	40.014915223933	1
0	388	40.1140818906	0
0	390	40.734283626206	1
0	392	40.737049806004	2
0	395	40.836216472671	0
0	397	41.17131306165	1
0	399	41.270479728317	0
0	401	41.61685430251	1
0	403	41.655374638133	2
0	406	41.7545413048	0
0	408	42.166012803562	1
0	410	42.265179470229	0
0	412	43.212352307132	1
0	414	43.311518973799	0
0	416	44.311632551027	1
0	418	44.410799217694	0
0	420	46.022250001938	1
0	422	46.121416668605	0
0	424	46.414140925479	1
0	426	46.513307592146	0
0	428	46.600584093636	1
0	430	46.683574596328	2
0	433	46.782741262995	0
0	435	46.944554912103	1
0	437	47.04372157877	0
0	439	47.228416400558	1
0	441	47.327583067225	0
0	443	47.729509935421	1
0	445	47.828676602088	0
0	447	48.176671115521	1
0	449	48.275837782188	0
0	451	48.487050994241	1
0	453	48.586217660908	0
0	455	48.81654220428	1
0	457	48.915708870947	0
0	459	49.530723466137	1
0	461	49.555224131452	2
0	464	49.654390798119	0
0	466	50.218678326335	1
0	468	50.317844993002	0
0	470	50.67893398296	1
0	472	50.778100649627	0
0	474	50.974966398631	1
0	476	51.074133065298	0
0	478	51.24698584587	1
0	480	51.346152512537	0
0	482	51.705450576163	1
0	484	51.80461724283	0
0	486	52.001397899752	1
0	488	52.100564566419	0
0	490	52.438647334758	1
0	492	52.537814001425	0
0	494	52.598045029503	1
0	496	52.642904382572	2
0	499	52.742071049239	0
0	501	53.23371144726	1
0	503	53.245491027329	2
0	505	53.261510846135	2
0	509	53.360677512802	0
0	511	53.370684527797	1
0	513	53.469851194464	0
0	515	53.566106970912	1
0	517	53.665273637579	0
0	519	54.242895392777	1
0	521	54.342062059444	0
0	523	54.526257543514	1
0	525	54.625424210181	0
0	527	54.691549643591	1
0	529	54.790716310258	0
0	531	54.885973193283	1
0	533	54.98513985995	0
0	535	55.451299975081	1
0	537	55.550466641748	0
0	539	55.722361065918	1
0	541	55.821527732585	0
0	543	56.295568339691	1
0	545	56.394735006358	0
0	547	57.085441833096	1
0	549	57.184608499763	0
0	551	57.746560515209	1
0	553	57.845727181876	0
0	555	58.019882756482	1
0	557	58.119049423149	0
0	559	58.264256785076	1
0	561	58.363423451743	0
0	563	58.997525851935	1
0	565	59.096692518602	0
0	567	59.43469999783	1
0	569	59.533866664497	0
0	571	59.940584625678	1
0	573	60.039751292345	0
0	575	60.708271378408	1
0	577	60.807438045075	0
0	579	61.288603823154	1
0	581	61.387770489821	0
0	583	61.768226125425	1
0	585	61.867392792092	0
0	587	62.033414246251	1
0	589	62.132580912918	0
0	591	62.23937197624	1
0	593	62.338538642907	0
0	595	62.418897170462	1
0	597	62.469435715514	2
0	600	62.568602382181	0
0	602	62.858144176173	1
0	604	62.95731084284	0
0	606	63.863570038409	1
0	608	63.962736705076	0
0	610	63.997219818558	1
0	612	64.018857446294	2
0	615	64.118024112961	0
0	617	64.468477759902	1
0	619	64.567644426569	0
0	621	64.788486175294	1
0	623	64.869654678383	2
0	626	64.96882134505	0
0	628	65.981210774905	1
0	630	66.080377441572	0
0	632	66.545993813003	1
0	634	66.577438570485	2
0	636	66.600997876404	2
0	640	66.700164543071	0
0	642	66.717052436636	1
0	644	66.816219103303	0
0	646	67.103286257447	1
0	648	67.202452924114	0
0	650	67.449011029809	1
0	652	67.548177696476	0
0	654	69.315059294019	1
0	656	69.414225960686	0
0	658	69.940311552113	1
0	660	69.943304337385	2
0	663	70.042471004052	0
0	665	70.491513885867	1
0	667	70.590680552534	0
0	669	70.677858040942	1
0	671	70.777024707609	0
0	673	70.795457435273	1
0	675	70.89462410194	0
0	677	70.977144576998	1
0	679	71.076311243665	0
0	681	71.976868494053	1
0	683	72.002272405252	2
0	686	72.101439071919	0
0	688	72.271286591792	1
0	690	72.340097215108	2
0	693	72.439263881775	0
0	695	72.614072383583	1
0	697	72.71323905025	0
0	699	72.823082115661	1
0	701	72.82595675721	2
0	704	72.925123423877	0
0	706	72.95379907227	1
0	708	73.052965738937	0
0	710	73.839097610169	1
0	712	73.938264276836	0
0	714	74.558331640314	1
0	716	74.657498306981	0
0	718	75.803508434046	1
0	720	75.902675100713	0
0	722	76.118944623873	1
0	724	76.21811129054	0
0	726	76.430891066822	1
0	728	76.530057733489	0
0	730	76.647830131898	1
0	732	76.742420471595	2
0	735	76.758453999468	2
0	738	76.857620666135	0
0	740	77.286220603582	1
0	742	77.385387270249	0
0	744	77.704691084671	1
0	746	77.803857751338	0
0	748	78.110905261938	1
0	750	78.210071928605	0
0	752	78.390718611093	1
0	754	78.430299065845	2
0	757	78.529465732512	0
0	759	79.257020600106	1
0	761	79.356187266773	0
0	763	79.871558332814	1
0	765	79.960262251461	2
0	768	80.059428918128	0
0	770	80.179361454262	1
0	772	80.278528120929	0
0	774	80.519266682087	1
0	776	80.618433348754	0
0	778	81.129022473232	1
0	780	81.228189139899	0
0	782	81.326225050542	1
0	784	81.425391717209	0
0	786	82.024413982308	1
0	788	82.123580648975	0
0	790	82.276553002545	1
0	792	82.375719669212	0
0	794	82.692019756783	1
0	796	82.79118642345	0
0	798	83.570549633404	1
0	800	83.669716300071	0
0	802	83.794492947664	1
0	804	83.806002812967	2
0	807	83.905169479634	0
0	809	84.096514341699	1
0	811	84.195681008366	0
0	813	84.938704685212	1
0	815	85.037871351879	0
0	817	85.115241454275	1
0	819	85.214408120942	0
0	821	85.261668531519	1
0	823	85.360835198186	0
0	825	85.533538832282	1
0	827	85.632705498949	0
0	829	86.07317301032	1
0	831	86.172339676987	0
0	833	86.751550102975	1
0	835	86.813151571102	2
0	838	86.912318237769	0
0	840	86.987733735101	1
0	842	87.086900401768	0
0	844	87.31503100013	1
0	846	87.414197666797	0
0	848	87.44469670314	1
0	850	87.543863369807	0
0	852	87.909137430266	1
0	854	88.008304096933	0
0	856	88.775282369721	1
0	858	88.850827430242	2
0	861	88.949994096909	0
0	863	89.905582630134	1
0	865	89.966024165506	2
0	868	90.065190832173	0
0	870	90.129563264332	1
0	872	90.228729930999	0
0	874	90.613058426382	1
0	876	90.712225093049	0
0	878	90.965831797724	1
0	880	90.969718379183	2
0	883	91.06888504585	0
0	885	91.28603125371	1
0	887	91.286995366439	2
0	889	91.311674125718	2
0	893	91.410840792385	0
0	895	91.624222019414	1
0	897	91.723388686081	0
0	899	92.291098419562	1
0	901	92.390265086229	0
0	903	93.411666276169	1
0	905	93.510832942836	0
0	907	93.709282195088	1
0	909	93.808448861755	0
0	911	93.921102174943	1
0	913	94.02026884161	0
0	915	94.720480738714	1
0	917	94.819647405381	0
0	919	95.292697801334	1
0	921	95.391864468001	0
0	923	95.695610718479	1
0	925	95.794777385146	0
0	927	96.531792563523	1
0	929	96.63095923019	0
0	931	97.351763619058	1
0	933	97.450930285725	0
0	935	98.88935717481	1
0	937	98.910733589282	2
0	940	99.009900255949	0
0	942	99.437567998862	1
0	944	99.536734665529	0
0	946	100.976170793449	1
0	948	100.980809498709	2
0	951	101.079976165376	0
0	953	101.825058747898	1
0	955	101.924225414565	0
0	957	102.285885196122	1
0	959	102.385051862789	0
0	961	102.644162538603	1
0	963	102.74332920527	0
0	965	102.762643541633	1
0	967	102.8618102083	0
0	969	102.888030443316	1
0	971	102.987197109983	0
0	973	103.14141092037	1
0	975	103.240577587037	0
0	977	103.652378408697	1
0	979	103.751545075364	0
0	981	104.266827938572	1
0	983	104.30974367694	2
0	986	104.408910343607	0
0	988	104.592107189348	1
0	990	104.691273856015	0
0	992	105.19677340011	1
0	994	105.295940066777	0
0	996	105.328941840425	1
0	998	105.347995841178	2
0	1001	105.447162507845	0
0	1003	105.607513399955	1
0	1005	105.706680066622	0
0	1007	107.156005269213	1
0	1009	107.242427731164	2
0	1012	107.26912582553	2
0	1015	107.368292492197	0
0	1017	107.372767227541	1
0	1019	107.471933894208	0
0	1021	107.51811730546	1
0	1023	107.617283972127	0
0	1025	107.711137938594	1
0	1027	107.727711814626	2
0	1030	107.826878481293	0
0	1032	108.015951522373	1
0	1034	108.11511818904	0
0	1036	109.497827234262	1
0	1038	109.596993900929	0
0	1040	109.702824704785	1
0	1042	109.801991371452	0
0	1044	110.217984853573	1
0	1046	110.31715152024	0
0	1048	110.349894919006	1
0	1050	110.449061585673	0
0	1052	110.72772458398	1
0	1054	110.802281804354	2
0	1057	110.901448471021	0
0	1059	111.106184668066	1
0	1061	111.205351334733	0
0	1063	111.390890984162	1
0	1065	111.405008517888	2
0	1068	111.504175184555	0
0	1070	111.537501044942	1
0	1072	111.588198858808	2
0	1075	111.687365525475	0
0	1077	111.870794400346	1
0	1079	111.969961067013	0
0	1081	112.128990570309	1
0	1083	112.228157236976	0
0	1085	112.545003207448	1
0	1087	112.644169874115	0
0	1089	112.815372599784	1
0	1091	112.914539266451	0
0	1093	113.058886109123	1
0	1095	113.15805277579	0
0	1097	113.65452985234	1
0	1099	113.753696519007	0
0	1101	113.79497450384	1
0	1103	113.79624161546	2
0	1106	113.895408282127	0
0	1108	114.020731946311	1
0	1110	114.119898612978	0
0	1112	114.191812314003	1
0	1114	114.29097898067	0
0	1116	114.369071379432	1
0	1118	114.468238046099	0
0	1120	115.073943272682	1
0	1122	115.173109939349	0
0	1124	115.581290424522	1
0	1126	115.680457091189	0
0	1128	115.782371428503	1
0	1130	115.88153809517	0
0	1132	116.134703625909	1
0	1134	116.233870292576	0
0	1136	116.365020817682	1
0	1138	116.464187484349	0
0	1140	117.627523284539	1
0	1142	117.726689951206	0
0	1144	119.453525175492	1
0	1146	119.552691842159	0
0	1148	120.998330623828	1
0	1150	121.097497290495	0
0	1152	121.785405237407	1
0	1154	121.884571904074	0
0	1156	121.928757506542	1
0	1158	122.027924173209	0
0	1160	122.118327520953	1
0	1162	122.21749418762	0
0	1164	122.314267531815	1
0	1166	122.413434198482	0
0	1168	122.985346246712	1
0	1170	123.084512913379	0
0	1172	123.315177212788	1
0	1174	123.414343879455	0
0	1176	124.352106412128	1
0	1178	124.451273078795	0
0	1180	124.509795250007	1
0	1182	124.608961916674	0
0	1184	124.739009550876	1
0	1186	124.838176217543	0
0	1188	125.35238540967	1
0	1190	125.450307990321	2
0	1193	125.549474656988	0
0	1195	125.749872334576	1
0	1197	125.849039001243	0
0	1199	127.598772234505	1
0	1201	127.697938901172	0
0	1203	127.770559540851	1
0	1205	127.821587560072	2
0	1207	127.845631508641	2
0	1211	127.944798175308	0
0	1213	128.832136934401	1
0	1215	128.931303601068	0
0	1217	129.227352609633	1
0	1219	129.3265192763	0
0	1221	129.509857238373	1
0	1223	129.60902390504	0
0	1225	130.127119515879	1
0	1227	130.226286182546	0
0	1229	130.310828550275	1
0	1231	130.409995216942	0
0	1233	130.580483868566	1
0	1235	130.679650535233	0
0	1237	131.032648710266	1
0	1239	131.131815376933	0
0	1241	131.399053375913	1
0	1243	131.49822004258	0
0	1245	131.77937630432	1
0	1247	131.830465986085	2
0	1250	131.929632652752	0
0	1252	131.932475206238	1
0	1254	132.031641872905	0
0	1256	132.3865685611	1
0	1258	132.485735227767	0
0	1260	132.57581875654	1
0	1262	132.674985423207	0
0	1264	132.814669258288	1
0	1266	132.913835924955	0
0	1268	134.200284097098	1
0	1270	134.299450763765	0
0	1272	134.490619757143	1
0	1274	134.58978642381	0
0	1276	134.713166840803	1
0	1278	134.81233350747	0
0	1280	134.822879515754	1
0	1282	134.922046182421	0
0	1284	135.094442479725	1
0	1286	135.193609146392	0
0	1288	135.213092322259	1
0	1290	135.312258988926	0
0	1292	135.442849587352	1
0	1294	135.510711040771	2
0	1297	135.609877707438	0
0	1299	135.765411327084	1
0	1301	135.864577993751	0
0	1303	136.048898726831	1
0	1305	136.148065393498	0
0	1307	136.512911577925	1
0	1309	136.612078244592	0
0	1311	136.69033036956	1
0	1313	136.789497036227	0
0	1315	137.293004803145	1
0	1317	137.392171469812	0
0	1319	137.536205856428	1
0	1321	137.607101625097	2
0	1324	137.706268291764	0
0	1326	137.76625830092	1
0	1328	137.865424967587	0
0	1330	138.329942727303	1
0	1332	138.42910939397	0
0	1334	138.562501255542	1
0	1336	138.661667922209	0
0	1338	138.881232102815	1
0	1340	138.980398769482	0
0	1342	139.262113996687	1
0	1344	139.361280663354	0
0	1346	139.643195262603	1
0	1348	139.74236192927	0
0	1350	139.908852229454	1
0	1352	140.008018896121	0
0	1354	140.450489306604	1
0	1356	140.549655973271	0
0	1358	140.801720926175	1
0	1360	140.825277911187	2
0	1363	140.924444577854	0
0	1365	141.193021225064	1
0	1367	141.292187891731	0
0	1369	141.985162523903	1
0	1371	142.08432919057	0
0	1373	142.218052902655	1
0	1375	142.317219569322	0
0	1377	142.948856069029	1
0	1379	143.048022735696	0
0	1381	144.749488176022	1
0	1383	144.848654842689	0
0	1385	144.871399213863	1
0	1387	144.907373655037	2
0	1390	145.006540321704	0
0	1392	145.013965787193	1
0	1394	145.061243630785	2
0	1397	145.160410297452	0
0	1399	145.939472696658	1
0	1401	146.038639363325	0
0	1403	146.898942905171	1
0	1405	146.998109571838	0
0	1407	147.025740571314	1
0	1409	147.124907237981	0
0	1411	147.4310615387	1
0	1413	147.530228205367	0
0	1415	148.884992415011	1
0	1417	148.984159081678	0
0	1419	149.191066505877	1
0	1421	149.238753505195	2
0	1424	149.313887837247	2
0	1427	149.413054503914	0
0	1429	149.660251340994	1
0	1431	149.759418007661	0
0	1433	150.090559699382	1
0	1435	150.189726366049	0
0	1437	150.21450988945	1
0	1439	150.313676556117	0
0	1441	150.522323138715	1
0	1443	150.619129953211	2
0	1446	150.718296619878	0
0	1448	152.06578926108	1
0	1450	152.074646908463	2
0	1452	152.158104801532	2
0	1456	152.257271468199	0
0	1458	152.583718221464	1
0	1460	152.682884888131	0
0	1462	152.701464383419	1
0	1464	152.800631050086	0
0	1466	153.283259963223	1
0	1468	153.38242662989	0
0	1470	154.014594303756	1
0	1472	154.113760970423	0
0	1474	154.130436339153	1
0	1476	154.22960300582	0
0	1478	154.554155514521	1
0	1480	154.653322181188	0
0	1482	154.757900495122	1
0	1484	154.801122168175	2
0	1487	154.865259192281	2
0	1490	154.964425858948	0
0	1492	155.049718143039	1
0	1494	155.148884809706	0
0	1496	155.287946187339	1
0	1498	155.387112854006	0
0	1500	156.029320507065	1
0	1502	156.128487173732	0
0	1504	156.419777922962	1
0	1506	156.518944589629	0
0	1508	156.637285411989	1
0	1510	156.736452078656	0
0	1512	157.347097365429	1
0	1514	157.446264032096	0
0	1516	157.598049698713	1
0	1518	157.608004702785	2
0	1520	157.656120508953	2
0	1522	157.662741772674	2
0	1527	157.761908439341	0
0	1529	158.33927534688	1
0	1531	158.438442013547	0
0	1533	158.686524080765	1
0	1535	158.785690747432	0
0	1537	160.120981535638	1
0	1539	160.220148202305	0
0	1541	160.495164626922	1
0	1543	160.565914157293	2
0	1546	160.66508082396	0
0	1548	161.454994624324	1
0	1550	161.465796290806	2
0	1552	161.482838184933	2
0	1556	161.5820048516	0
0	1558	162.387328454129	1
0	1560	162.486495120796	0
0	1562	162.833620486369	1
0	1564	162.868284833484	2
0	1567	162.967451500151	0
0	1569	163.052686077114	1
0	1571	163.151852743781	0
0	1573	163.522981167572	1
0	1575	163.548574006379	2
0	1578	163.647740673046	0
0	1580	164.03336512831	1
0	1582	164.064327639424	2
0	1585	164.163494306091	0
0	1587	164.593309765916	1
0	1589	164.692476432583	0
0	1591	166.320916798146	1
0	1593	166.420083464813	0
0	1595	166.520952927727	1
0	1597	166.620119594394	0
0	1599	166.667453182984	1
0	1601	166.766619849651	0
0	1603	166.777700679	1
0	1605	166.876867345667	0
0	1607	166.919022845961	1
0	1609	167.018189512628	0
0	1611	167.403027594966	1
0	1613	167.460625695606	2
0	1616	167.559792362273	0
0	1618	168.174847783553	1
0	1620	168.215410181934	2
0	1623	168.314576848601	0
0	1625	168.714834214889	1
0	1627	168.814000881556	0
0	1629	168.901722447552	1
0	1631	169.000889114219	0
0	1633	169.120416439087	1
0	1635	169.219583105754	0
0	1637	169.375823686716	1
0	1639	169.474990353383	0
0	1641	170.583397235327	1
0	1643	170.682563901994	0
0	1645	170.957132056262	1
0	1647	171.056298722929	0
0	1649	172.179304498739	1
0	1651	172.278471165406	0
0	1653	172.973038148529	1
0	1655	173.072204815196	0
0	1657	173.201979211484	1
0	1659	173.301145878151	0
0	1661	173.442945400194	1
0	1663	173.542112066861	0
0	1665	173.701999958996	1
0	1667	173.723738626212	2
0	1670	173.822905292879	0
0	1672	173.85513347684	1
0	1674	173.954300143507	0
0	1676	175.105336955365	1
0	1678	175.204503622032	0
0	1680	175.249766779243	1
0	1682	175.34893344591	0
0	1684	175.615804403971	1
0	1686	175.714971070638	0
0	1688	176.570932949767	1
0	1690	176.57712989796	2
0	1692	176.631259809736	2
0	1696	176.730426476403	0
0	1698	176.825155274741	1
0	1700	176.86245323769	2
0	1703	176.961619904357	0
0	1705	177.21260274795	1
0	1707	177.299631058956	2
0	1710	177.398797725623	0
0	1712	178.121125231988	1
0	1714	178.220291898655	0
0	1716	178.250920281596	1
0	1718	178.350086948263	0
0	1720	178.594935407291	1
0	1722	178.694102073958	0
0	1724	179.267515287449	1
0	1726	179.366681954116	0
0	1728	179.887546632053	1
0	1730	179.903603496532	2
0	1733	180.002770163199	0
0	1735	180.096543493155	1
0	1737	180.195710159822	0
0	1739	180.39168347744	1
0	1741	180.407856201112	2
0	1744	180.507022867779	0
0	1746	180.566361066816	1
0	1748	180.614253332716	2
0	1750	180.640907607006	2
0	1754	180.740074273673	0
0	1756	181.984437224521	1
0	1758	182.006614971028	2
0	1761	182.105781637695	0
0	1763	182.200542793355	1
0	1765	182.299709460022	0
0	1767	182.904931783374	1
0	1769	183.004098450041	0
0	1771	183.914255256836	1
0	1773	184.013421923503	0
0	1775	184.499916630225	1
0	1777	184.599083296892	0
0	1779	184.663728639648	1
0	1781	184.762895306315	0
0	1783	184.81859675759	1
0	1785	184.917763424257	0
0	1787	185.428774294894	1
0	1789	185.527940961561	0
0	1791	185.763772640892	1
0	1793	185.862939307559	0
0	1795	185.975304414003	1
0	1797	186.07447108067	0
0	1799	186.460419786497	1
0	1801	186.559586453164	0
0	1803	187.205327855361	1
0	1805	187.304494522028	0
0	1807	187.609116300729	1
0	1809	187.694163905026	2
0	1812	187.793330571693	0
0	1814	187.936972455679	1
0	1816	188.036139122346	0
0	1818	188.087247392453	1
0	1820	188.18641405912	0
0	1822	188.279272345595	1
0	1824	188.378439012262	0
0	1826	188.893953135196	1
0	1828	188.993119801863	0
0	1830	189.334082086961	1
0	1832	189.433248753628	0
0	1834	189.481771769648	1
0	1836	189.580938436315	0
0	1838	190.902159120083	1
0	1840	190.942823204375	2
0	1843	191.041989871042	0
0	1845	191.908229966765	1
0	1847	192.007396633432	0
0	1849	192.292897542339	1
0	1851	192.392064209006	0
0	1853	192.929949680342	1
0	1855	192.999042622674	2
0	1858	193.098209289341	0
0	1860	193.7882877461	1
0	1862	193.792072214111	2
0	1865	193.891238880778	0
0	1867	193.969581616795	1
0	1869	194.036192214805	2
0	1872	194.135358881472	0
0	1874	194.143993599842	1
0	1876	194.243160266509	0
0	1878	194.351501783824	1
0	1880	194.383138057197	2
0	1883	194.482304723864	0
0	1885	194.689802726842	1
0	1887	194.788969393509	0
0	1889	194.957391960057	1
0	1891	195.056558626724	0
0	1893	195.226081365058	1
0	1895	195.325248031725	0
0	1897	196.140915659278	1
0	1899	196.240082325945	0
0	1901	196.642670014125	1
0	1903	196.741836680792	0
0	1905	196.809731448467	1
0	1907	196.908898115134	0
0	1909	197.03101767979	1
0	1911	197.119563671159	2
0	1914	197.218730337826	0
0	1916	198.563691448445	1
0	1918	198.662858115112	0
0	1920	198.71596980824	1
0	1922	198.815136474907	0
0	1924	199.065754659222	1
0	1926	199.164921325889	0
0	1928	199.727034740286	1
0	1930	199.826201406953	0
0	1932	199.954178830357	1
0	1934	200.053345497024	0
0	1936	200.219919562891	1
0	1938	200.319086229558	0
0	1940	201.112487568536	1
0	1942	201.132781471667	2
0	1945	201.231948138334	0
0	1947	201.457167646836	1
0	1949	201.556334313503	0
0	1951	201.649585442103	1
0	1953	201.74875210877	0
0	1955	202.087184628129	1
0	1957	202.186351294796	0
0	1959	202.681063813136	1
0	1961	202.780230479803	0
0	1963	203.296084424963	1
0	1965	203.39525109163	0
0	1967	203.52177357101	1
0	1969	203.620940237677	0
0	1971	203.948172059141	1
0	1973	204.047338725808	0
0	1975	204.744911600953	1
0	1977	204.84407826762	0
0	1979	205.071356614963	1
0	1981	205.108934745798	2
0	1984	205.208101412465	0
0	1986	205.47382622886	1
0	1988	205.572992895527	0
0	1990	206.210347357214	1
0	1992	206.309514023881	0
0	1994	206.585886290661	1
0	1996	206.685052957328	0
0	1998	206.784710752352	1
0	2000	206.883877419019	0
0	2002	207.215096621312	1
0	2004	207.314263287979	0
0	2006	207.406235615412	1
0	2008	207.455347405224	2
0	2011	207.554514071891	0
0	2013	208.133991224681	1
0	2015	208.156517476454	2
0	2018	208.255684143121	0
0	2020	208.500924850208	1
0	2022	208.600091516875	0
0	2024	209.956036832879	1
0	2026	210.055203499546	0
0	2028	210.368504450505	1
0	2030	210.467671117172	0
0	2032	211.863475109713	1
0	2034	211.96264177638	0
0	2036	212.139159671703	1
0	2038	212.23832633837	0
0	2040	212.999689893844	1
0	2042	213.077042198461	2
0	2045	213.176208865128	0
0	2047	213.332054256332	1
0	2049	213.431220922999	0
0	2051	214.75135594688	1
0	2053	214.766400299447	2
0	2056	214.865566966114	0
0	2058	215.205294315021	1
0	2060	215.304460981688	0
0	2062	216.006415251529	1
0	2064	216.105581918196	0
0	2066	216.53505684502	1
0	2068	216.634223511687	0
0	2070	216.719374123524	1
0	2072	216.818540790191	0
0	2074	217.207148223963	1
0	2076	217.30631489063	0
0	2078	217.433509597301	1
0	2080	217.532676263968	0
0	2082	217.981139253026	1
0	2084	218.080305919693	0
0	2086	218.229144286276	1
0	2088	218.328310952943	0
0	2090	218.577557494737	1
0	2092	218.676724161404	0
0	2094	218.974741020044	1
0	2096	219.072478672767	2
0	2099	219.171645339434	0
0	2101	219.301717627117	1
0	2103	219.373134158202	2
0	2106	219.472300824869	0
0	2108	219.520653261739	1
0	2110	219.61767767985	2
0	2113	219.716844346517	0
0	2115	219.777039626386	1
0	2117	219.812436681166	2
0	2120	219.911603347833	0
0	2122	220.124011825333	1
0	2124	220.192917982433	2
0	2127	220.2920846491	0
0	2129	220.59347498373	1
0	2131	220.606103441292	2
0	2134	220.705270107959	0
0	2136	221.273044536812	1
0	2138	221.372211203479	0
0	2140	221.877321444092	1
0	2142	221.976488110759	0
0	2144	223.532608072829	1
0	2146	223.631774739496	0
0	2148	223.790825251733	1
0	2150	223.8899919184	0
0	2152	224.18303779614	1
0	2154	224.282204462807	0
0	2156	224.350557551333	1
0	2158	224.449724218	0
0	2160	224.598980122707	1
0	2162	224.698146789374	0
0	2164	225.176158758774	1
0	2166	225.275325425441	0
0	2168	225.875285081747	1
0	2170	225.974451748414	0
0	2172	226.074355829079	1
0	2174	226.173522495746	0
0	2176	226.352660073889	1
0	2178	226.451826740556	0
0	2180	226.474458471639	1
0	2182	226.573625138306	0
0	2184	227.652934026366	1
0	2186	227.752100693033	0
0	2188	228.511797044691	1
0	2190	228.610963711358	0
0	2192	228.660420955203	1
0	2194	228.75958762187	0
0	2196	228.955395831956	1
0	2198	229.054562498623	0
0	2200	229.32753689186	1
0	2202	229.426703558527	0
0	2204	230.042201542415	1
0	2206	230.141368209082	0
0	2208	230.969567342922	1
0	2210	231.068734009589	0
0	2212	231.400270140029	1
0	2214	231.499436806696	0
0	2216	231.735335081356	1
0	2218	231.834501748023	0
0	2220	233.863755878254	1
0	2222	233.962922544921	0
0	2224	234.034131161995	1
0	2226	234.133297828662	0
0	2228	234.166654929088	1
0	2230	234.265821595755	0
0	2232	235.228082155224	1
0	2234	235.327248821891	0
0	2236	235.462041989884	1
0	2238	235.561208656551	0
0	2240	235.829338304781	1
0	2242	235.928504971448	0
0	2244	237.171481312631	1
0	2246	237.270647979298	0
0	2248	237.819939896577	1
0	2250	237.841820147552	2
0	2252	237.867266471638	2
0	2256	237.962500219806	2
0	2259	238.061666886473	0
0	2261	238.52462738141	1
0	2263	238.623794048077	0
0	2265	239.087397078844	1
0	2267	239.186563745511	0
0	2269	240.727137358195	1
0	2271	240.826304024862	0
0	2273	241.06225437426	1
0	2275	241.161421040927	0
0	2277	243.491119601122	1
0	2279	243.590286267789	0
0	2281	243.949851470599	1
0	2283	244.001906389579	2
0	2286	244.101073056246	0
0	2288	244.633148922984	1