version 3
run PureAlohaExperiment-20-20260306-12:10:19-8840
attr configname PureAlohaExperiment
attr datetime 20260306-12:10:19
attr datetimef 20260306-121019
attr experiment PureAlohaExperiment
attr inifile omnetpp.ini
attr iterationvars "$numHosts=15, $iaMean=4"
attr iterationvarsd numHosts=15/iaMean=4
attr iterationvarsf numHosts=15,iaMean=4-
attr measurement "$numHosts=15, $iaMean=4"
attr network Aloha
attr processid 8840
attr repetition 0
attr replication #0
attr resultdir results
attr runnumber 20
attr seedset 20
itervar iaMean 4
itervar numHosts 15
config description "Channel utilization in the function of packet generation frequency"
config repeat 2
config sim-time-limit 90min
config Aloha.numHosts 15
config Aloha.host[*].iaTime exponential(4s)
config network Aloha
config Aloha.numHosts 20
config Aloha.slotTime 0s
config Aloha.txRate 9.6kbps
config Aloha.host[*].pkLenBits 952b
config **.x "uniform(0m, 1000m)"
config **.y "uniform(0m, 1000m)"
config **.animationHoldTimeOnCollision 0s
config **.idleAnimationSpeed 1
config **.transmissionEdgeAnimationSpeed 1e-6
config **.midTransmissionAnimationSpeed 1e-1

vector 0 Aloha.server serverChannelState:vector ETV
attr enum IDLE=0,TRANSMISSION=1,COLLISION=2
attr recordingmode vector
attr source channelState
attr title "Channel state"
vector 1 Aloha.host[0] radioState:vector ETV
attr enum IDLE=0,TRANSMIT=1
attr recordingmode vector
attr source state
attr title "Radio state"
vector 2 Aloha.host[1] radioState:vector ETV
attr enum IDLE=0,TRANSMIT=1
attr recordingmode vector
attr source state
attr title "Radio state"
vector 3 Aloha.host[2] radioState:vector ETV
attr enum IDLE=0,TRANSMIT=1
attr recordingmode vector
attr source state
attr title "Radio state"
vector 4 Aloha.host[3] radioState:vector ETV
attr enum IDLE=0,TRANSMIT=1
attr recordingmode vector
attr source state
attr title "Radio state"
vector 5 Aloha.host[4] radioState:vector ETV
attr enum IDLE=0,TRANSMIT=1
attr recordingmode vector
attr source state
attr title "Radio state"
vector 6 Aloha.host[5] radioState:vector ETV
attr enum IDLE=0,TRANSMIT=1
attr recordingmode vector
attr source state
attr title "Radio state"
vector 7 Aloha.host[6] radioState:vector ETV
attr enum IDLE=0,TRANSMIT=1
attr recordingmode vector
attr source state
attr title "Radio state"
vector 8 Aloha.host[7] radioState:vector ETV
attr enum IDLE=0,TRANSMIT=1
attr recordingmode vector
attr source state
attr title "Radio state"
vector 9 Aloha.host[8] radioState:vector ETV
attr enum IDLE=0,TRANSMIT=1
attr recordingmode vector
attr source state
attr title "Radio state"
vector 10 Aloha.host[9] radioState:vector ETV
attr enum IDLE=0,TRANSMIT=1
attr recordingmode vector
attr source state
attr title "Radio state"
vector 11 Aloha.host[10] radioState:vector ETV
attr enum IDLE=0,TRANSMIT=1
attr recordingmode vector
attr source state
attr title "Radio state"
vector 12 Aloha.host[11] radioState:vector ETV
attr enum IDLE=0,TRANSMIT=1
attr recordingmode vector
attr source state
attr title "Radio state"
vector 13 Aloha.host[12] radioState:vector ETV
attr enum IDLE=0,TRANSMIT=1
attr recordingmode vector
attr source state
attr title "Radio state"
vector 14 Aloha.host[13] radioState:vector ETV
attr enum IDLE=0,TRANSMIT=1
attr recordingmode vector
attr source state
attr title "Radio state"
vector 15 Aloha.host[14] radioState:vector ETV
attr enum IDLE=0,TRANSMIT=1
attr recordingmode vector
attr source state
attr title "Radio state"
vector 16 Aloha.server channelUtilizationVector:vector ETV
attr interpolationmode linear
attr recordingmode vector
attr source timeavg(receive)
attr title "channel utilization evolution"
0	0	0	0
0	2	0.005488687428	1
0	4	0.104655354095	0
0	6	0.49633423359	1
0	8	0.595500900257	0
0	10	0.787861339977	1
0	12	0.887028006644	0
0	14	0.922544953869	1
0	16	1.021711620536	0
0	18	1.093635263907	1
0	20	1.176445667259	2
0	23	1.250079541573	2
0	25	1.270098872119	2
0	29	1.369265538786	0
0	31	2.515867864002	1
0	33	2.573806969735	2
0	36	2.672973636402	0
0	38	3.299287619369	1
0	40	3.303502025965	2
0	43	3.402668692632	0
0	45	3.427280747137	1
0	47	3.526447413804	0
0	49	3.564871595853	1
0	51	3.66403826252	0
0	53	3.733808368618	1
0	55	3.832975035285	0
0	57	4.762007643595	1
0	59	4.861174310262	0
0	61	5.065921825451	1
0	63	5.145424858589	2
0	66	5.244591525256	0
0	68	5.266191097963	1
0	70	5.36535776463	0
0	72	5.565722449849	1
0	74	5.664889116516	0
0	76	5.943681593439	1
0	78	6.042848260106	0
0	80	6.158811856207	1
0	82	6.257978522874	0
0	84	6.470927415678	1
0	86	6.478588609482	2
0	88	6.496838513527	2
0	92	6.596005180194	0
0	94	7.264479761259	1
0	96	7.363646427926	0
0	98	7.797179704027	1
0	100	7.896346370694	0
0	102	8.214421128238	1
0	104	8.269422897959	2
0	107	8.368589564626	0
0	109	8.68705912533	1
0	111	8.786225791997	0
0	113	8.924646459864	1
0	115	8.960821663109	2
0	118	9.059988329776	0
0	120	9.069454783716	1
0	122	9.168621450383	0
0	124	9.201038597154	1
0	126	9.300205263821	0
0	128	10.010309706738	1
0	130	10.109476373405	0
0	132	10.302399391359	1
0	134	10.401566058026	0
0	136	10.547209670134	1
0	138	10.620859022769	2
0	141	10.720025689436	0
0	143	10.847518483382	1
0	145	10.907179120867	2
0	148	10.99844227321	2
0	151	11.097608939877	0
0	153	11.172223916065	1
0	155	11.177686525392	2
0	157	11.189324383809	2
0	161	11.288491050476	0
0	163	11.766888402824	1
0	165	11.866055069491	0
0	167	11.965290456072	1
0	169	12.064457122739	0
0	171	12.069643876056	1
0	173	12.161894489445	2
0	176	12.254328796119	2
0	179	12.353495462786	0
0	181	12.464877706728	1
0	183	12.564044373395	0
0	185	12.769633970219	1
0	187	12.868800636886	0
0	189	13.015416654494	1
0	191	13.114583321161	0
0	193	13.243341325391	1
0	195	13.247946986901	2
0	198	13.347113653568	0
0	200	13.56894168717	1
0	202	13.662371667785	2
0	205	13.761538334452	0
0	207	13.79485137177	1
0	209	13.894018038437	0
0	211	13.929807778505	1
0	213	13.948381814478	2
0	215	13.957486289953	2
0	219	14.05665295662	0
0	221	14.117432942362	1
0	223	14.216599609029	0
0	225	14.779894464264	1
0	227	14.879061130931	0
0	229	14.960829555983	1
0	231	15.05999622265	0
0	233	15.430627962129	1
0	235	15.528682071944	2
0	238	15.627848738611	0
0	240	15.738364698625	1
0	242	15.837531365292	0
0	244	15.86288280102	1
0	246	15.907605687248	2
0	248	15.931895072872	2
0	252	16.031061739539	0
0	254	16.3120605532	1
0	256	16.411227219867	0
0	258	16.894277302552	1
0	260	16.993443969219	0
0	262	17.077282963803	1
0	264	17.17644963047	0
0	266	17.406577640669	1
0	268	17.505744307336	0
0	270	17.646509191982	1
0	272	17.693118713558	2
0	275	17.792285380225	0
0	277	18.629198322327	1
0	279	18.64867119791	2
0	282	18.747837864577	0
0	284	18.87952057964	1
0	286	18.978687246307	0
0	288	19.118561884112	1
0	290	19.217728550779	0
0	292	19.554790659487	1
0	294	19.653957326154	0
0	296	20.059085021483	1
0	298	20.061699945738	2
0	301	20.160866612405	0
0	303	20.16702100957	1
0	305	20.205935981919	2
0	308	20.305102648586	0
0	310	20.528339972607	1
0	312	20.574614768241	2
0	315	20.673781434908	0
0	317	21.047513910428	1
0	319	21.146680577095	0
0	321	21.649237920966	1
0	323	21.748404587633	0
0	325	21.9000803277	1
0	327	21.999246994367	0
0	329	22.58467034463	1
0	331	22.683837011297	0
0	333	22.765475282612	1
0	335	22.864641949279	0
0	337	23.129040375113	1
0	339	23.22820704178	0
0	341	23.288818294877	1
0	343	23.387984961544	0
0	345	23.528828641556	1
0	347	23.579877176843	2
0	350	23.67904384351	0
0	352	23.904283857181	1
0	354	23.923628166952	2
0	357	24.022794833619	0
0	359	25.16665888039	1
0	361	25.265825547057	0
0	363	25.432219956717	1
0	365	25.45611703429	2
0	367	25.467703493167	2
0	371	25.566870159834	0
0	373	25.72786332383	1
0	375	25.827029990497	0
0	377	25.94264601998	1
0	379	26.041812686647	0
0	381	26.177729866256	1
0	383	26.25979669147	2
0	386	26.358963358137	0
0	388	26.468513239872	1
0	390	26.567679906539	0
0	392	27.471541401663	1
0	394	27.517993703527	2
0	397	27.617160370194	0
0	399	27.618884364411	1
0	401	27.718051031078	0
0	403	28.126248003622	1
0	405	28.193752664201	2
0	408	28.292919330868	0
0	410	28.445712391115	1
0	412	28.544879057782	0
0	414	29.380558753525	1
0	416	29.474902211133	2
0	419	29.565175507454	2
0	422	29.664342174121	0
0	424	29.694285939793	1
0	426	29.771491125544	2
0	429	29.870657792211	0
0	431	30.605110637148	1
0	433	30.704277303815	0
0	435	30.98378967161	1
0	437	31.082956338277	0
0	439	31.134343283717	1
0	441	31.233509950384	0
0	443	31.92437123834	1
0	445	31.957849894576	2
0	448	32.036310620132	2
0	451	32.126818559974	2
0	454	32.225985226641	0
0	456	32.288476742504	1
0	458	32.387643409171	0
0	460	32.697989969556	1
0	462	32.797156636223	0
0	464	32.949376968032	1
0	466	33.048543634699	0
0	468	33.642592591018	1
0	470	33.672393880117	2
0	473	33.771560546784	0
0	475	33.97267984473	1
0	477	33.989367389051	2
0	479	34.025400192327	2
0	483	34.124566858994	0
0	485	34.140181716785	1
0	487	34.239348383452	0
0	489	34.358891470478	1
0	491	34.458058137145	0
0	493	34.527242345285	1
0	495	34.549797725519	2
0	497	34.622295182488	2
0	501	34.721461849155	0
0	503	35.078199366189	1
0	505	35.129606839431	2
0	508	35.228773506098	0
0	510	35.322101371314	1
0	512	35.421268037981	0
0	514	35.574022787958	1
0	516	35.668603137781	2
0	519	35.767769804448	0
0	521	35.903460837821	1
0	523	35.939169478353	2
0	526	36.03833614502	0
0	528	37.785932923875	1
0	530	37.885099590542	0
0	532	38.636160253714	1
0	534	38.735326920381	0
0	536	38.93352248834	1
0	538	39.032689155007	0
0	540	39.762668535068	1
0	542	39.861835201735	0
0	544	39.865573401816	1
0	546	39.915769413573	2
0	549	40.01493608024	0
0	551	40.092604044953	1
0	553	40.163723842457	2
0	556	40.262890509124	0
0	558	40.741456948453	1
0	560	40.84062361512	0
0	562	41.503397311233	1
0	564	41.6025639779	0
0	566	41.951746711637	1
0	568	42.050913378304	0
0	570	42.065368778627	1
0	572	42.164535445294	0
0	574	42.460303309595	1
0	576	42.559469976262	0
0	578	42.640572724335	1
0	580	42.699363133053	2
0	583	42.79852979972	0
0	585	43.132498178937	1
0	587	43.139066335446	2
0	590	43.238233002113	0
0	592	43.343689577072	1
0	594	43.442856243739	0
0	596	43.607134082969	1
0	598	43.706300749636	0
0	600	44.04013272383	1
0	602	44.111699649586	2
0	605	44.210866316253	0
0	607	44.489705220292	1
0	609	44.506454161504	2
0	612	44.605620828171	0
0	614	44.633694941483	1
0	616	44.73286160815	0
0	618	45.278020405402	1
0	620	45.377187072069	0
0	622	45.453394525411	1
0	624	45.466679138422	2
0	627	45.565845805089	0
0	629	45.950677493271	1
0	631	46.049844159938	0
0	633	46.256538986411	1
0	635	46.355705653078	0
0	637	46.461365857112	1
0	639	46.560532523779	0
0	641	46.571087542032	1
0	643	46.591053989631	2
0	645	46.6007668407	2
0	649	46.699933507367	0
0	651	47.147875054936	1
0	653	47.247041721603	0
0	655	47.365506225051	1
0	657	47.464672891718	0
0	659	47.531998383971	1
0	661	47.631165050638	0
0	663	47.703587685006	1
0	665	47.801748567796	2
0	668	47.900915234463	0
0	670	47.921463778934	1
0	672	48.020630445601	0
0	674	48.260217510901	1
0	676	48.359384177568	0
0	678	48.585078141911	1
0	680	48.684244808578	0
0	682	48.714442503317	1
0	684	48.801466339169	2
0	687	48.900633005836	0
0	689	48.928686827741	1
0	691	49.027853494408	0
0	693	49.065529001092	1
0	695	49.164695667759	0
0	697	50.032512761195	1
0	699	50.131679427862	0
0	701	50.306296347377	1
0	703	50.405463014044	0
0	705	50.485423384308	1
0	707	50.584590050975	0
0	709	50.781845108903	1
0	711	50.822289598563	2
0	714	50.908906206419	2
0	717	51.008072873086	0
0	719	51.587075703753	1
0	721	51.68624237042	0
0	723	51.724798671426	1
0	725	51.823965338093	0
0	727	52.031142880309	1
0	729	52.111832332443	2
0	732	52.21099899911	0
0	734	52.374471376231	1
0	736	52.473638042898	0
0	738	52.542410928783	1
0	740	52.64157759545	0
0	742	53.194000560698	1
0	744	53.215305632685	2
0	747	53.314472299352	0
0	749	53.440897540501	1
0	751	53.540064207168	0
0	753	53.689190579147	1
0	755	53.788357245814	0
0	757	54.952665710611	1
0	759	55.051832377278	0
0	761	55.334643334026	1
0	763	55.389658136509	2
0	766	55.488824803176	0
0	768	55.617347144329	1
0	770	55.642997191149	2
0	773	55.742163857816	0
0	775	55.839276016744	1
0	777	55.938442683411	0
0	779	56.586177233939	1
0	781	56.685343900606	0
0	783	56.994045471596	1
0	785	57.093212138263	0
0	787	57.571905917038	1
0	789	57.671072583705	0
0	791	58.092812908453	1
0	793	58.19197957512	0
0	795	58.332972219445	1
0	797	58.432138886112	0
0	799	58.713009634923	1
0	801	58.750592757169	2
0	804	58.849759423836	0
0	806	59.01231053084	1
0	808	59.030385074084	2
0	810	59.090254423648	2
0	814	59.189421090315	0
0	816	60.390607921543	1
0	818	60.48977458821	0
0	820	61.025220669947	1
0	822	61.053190789249	2
0	824	61.069017260127	2
0	826	61.1185778631	2
0	831	61.217744529767	0
0	833	62.123547110867	1
0	835	62.222713777534	0
0	837	62.277178966912	1
0	839	62.376345633579	0
0	841	62.40764053209	1
0	843	62.410369677729	2
0	846	62.509536344396	0
0	848	62.519732474658	1
0	850	62.618899141325	0
0	852	63.620015846057	1
0	854	63.679897258695	2
0	857	63.750404634972	2
0	860	63.849571301639	0
0	862	63.990951310828	1
0	864	64.090117977495	0
0	866	64.157829437778	1
0	868	64.170232673557	2
0	871	64.269399340224	0
0	873	64.723566966021	1
0	875	64.822733632688	0
0	877	64.957063185903	1
0	879	65.05622985257	0
0	881	65.062799768415	1
0	883	65.161966435082	0
0	885	65.866783767471	1
0	887	65.965950434138	0
0	889	66.348800408491	1
0	891	66.424105853809	2
0	894	66.523272520476	0
0	896	67.46545696697	1
0	898	67.564623633637	0
0	900	67.914823238345	1
0	902	68.013989905012	0
0	904	68.128335542687	1
0	906	68.227502209354	0
0	908	68.614002163717	1
0	910	68.673473766237	2
0	913	68.772640432904	0
0	915	69.086316819451	1
0	917	69.185483486118	0
0	919	69.750516812007	1
0	921	69.849683478674	0
0	923	69.970485008566	1
0	925	70.000289899001	2
0	928	70.099456565668	0
0	930	70.502658891431	1
0	932	70.601825558098	0
0	934	70.825342237957	1
0	936	70.924508904624	0
0	938	71.083748152986	1
0	940	71.182914819653	0
0	942	71.258608229614	1
0	944	71.357774896281	0
0	946	71.382884256282	1
0	948	71.482050922949	0
0	950	72.120361007378	1
0	952	72.219527674045	0
0	954	72.428302869716	1
0	956	72.527469536383	0
0	958	72.649264642966	1
0	960	72.748431309633	0
0	962	73.08992516228	1
0	964	73.189091828947	0
0	966	73.200518917317	1
0	968	73.299685583984	0
0	970	73.299718003707	1
0	972	73.398884670374	0
0	974	73.586583544195	1
0	976	73.658383474401	2
0	979	73.757550141068	0
0	981	74.143193051372	1
0	983	74.206349783066	2
0	986	74.262761468663	2
0	989	74.36192813533	0
0	991	74.499283180014	1
0	993	74.570530276527	2
0	996	74.669696943194	0
0	998	75.09362027912	1
0	1000	75.192786945787	0
0	1002	75.219410518745	1
0	1004	75.318577185412	0
0	1006	75.80214004836	1
0	1008	75.901306715027	0
0	1010	75.996559813155	1
0	1012	76.095726479822	0
0	1014	77.058852963015	1
0	1016	77.158019629682	0
0	1018	77.258965525024	1
0	1020	77.312701030055	2
0	1023	77.380512437708	2
0	1026	77.479679104375	0
0	1028	77.669192997001	1
0	1030	77.768359663668	0
0	1032	78.12193133263	1
0	1034	78.204014723973	2
0	1037	78.30318139064	0
0	1039	78.538825108797	1
0	1041	78.634053489401	2
0	1044	78.733220156068	0
0	1046	78.817167267247	1
0	1048	78.916333933914	0
0	1050	78.953539135805	1
0	1052	79.052705802472	0
0	1054	79.056180831643	1
0	1056	79.15534749831	0
0	1058	79.436791141546	1
0	1060	79.535957808213	0
0	1062	80.407987325212	1
0	1064	80.507153991879	0
0	1066	80.545829937506	1
0	1068	80.644996604173	0
0	1070	80.934767644511	1
0	1072	81.033934311178	0
0	1074	81.329709213853	1
0	1076	81.42887588052	0
0	1078	82.347038042232	1
0	1080	82.446204708899	0
0	1082	82.454098559172	1
0	1084	82.553265225839	0
0	1086	82.728020690388	1
0	1088	82.827187357055	0
0	1090	83.042482270071	1
0	1092	83.141648936738	0
0	1094	83.340039638993	1
0	1096	83.43920630566	0
0	1098	84.152648923182	1
0	1100	84.251815589849	0
0	1102	84.317843239359	1
0	1104	84.402346369637	2
0	1107	84.501513036304	0
0	1109	84.708549961339	1
0	1111	84.807716628006	0
0	1113	85.083986735569	1
0	1115	85.183153402236	0
0	1117	85.407506804323	1
0	1119	85.50667347099	0
0	1121	85.848535318382	1
0	1123	85.947701985049	0
0	1125	87.236827978529	1
0	1127	87.335994645196	0
0	1129	87.52665291386	1
0	1131	87.625819580527	0
0	1133	87.667866467311	1
0	1135	87.714058340441	2
0	1138	87.793430842268	2
0	1141	87.892597508935	0
0	1143	88.552640133643	1
0	1145	88.621511922809	2
0	1148	88.720678589476	0
0	1150	89.025210931665	1
0	1152	89.124377598332	0
0	1154	90.17539531535	1
0	1156	90.274561982017	0
0	1158	90.335207208582	1
0	1160	90.434373875249	0
0	1162	90.53758672975	1
0	1164	90.58511418629	2
0	1167	90.684280852957	0
0	1169	91.060394635073	1
0	1171	91.15956130174	0
0	1173	91.257443475009	1
0	1175	91.356610141676	0
0	1177	91.40998693843	1
0	1179	91.509153605097	0
0	1181	91.59233379876	1
0	1183	91.691500465427	0
0	1185	92.41937699953	1
0	1187	92.44567110902	2
0	1190	92.544837775687	0
0	1192	92.664515164362	1
0	1194	92.74237040004	2
0	1197	92.841537066707	0
0	1199	92.958648868911	1
0	1201	93.029055134238	2
0	1204	93.128221800905	0
0	1206	93.491809648486	1
0	1208	93.590976315153	0
0	1210	93.680670180893	1
0	1212	93.745065792074	2
0	1215	93.844232458741	0
0	1217	93.870509464686	1
0	1219	93.969676131353	0
0	1221	94.010425644207	1
0	1223	94.109592310874	0
0	1225	94.262777210138	1
0	1227	94.361943876805	0
0	1229	95.286920241092	1
0	1231	95.386086907759	0
0	1233	96.080043800741	1
0	1235	96.179210467408	0
0	1237	96.728446100123	1
0	1239	96.82761276679	0
0	1241	96.869423050029	1
0	1243	96.968589716696	0
0	1245	97.038787608443	1
0	1247	97.13795427511	0
0	1249	97.912954949195	1
0	1251	98.012121615862	0
0	1253	98.431731460441	1
0	1255	98.530898127108	0
0	1257	98.922692251684	1
0	1259	99.021858918351	0
0	1261	99.096398935626	1
0	1263	99.195565602293	0
0	1265	100.444485995752	1
0	1267	100.540805267895	2
0	1270	100.639971934562	0
0	1272	100.719811902359	1
0	1274	100.807200690121	2
0	1277	100.827755488157	2
0	1279	100.879178825897	2
0	1283	100.978345492564	0
0	1285	101.522861395264	1
0	1287	101.622028061931	0
0	1289	102.364057283863	1
0	1291	102.46322395053	0
0	1293	102.898940929613	1
0	1295	102.99810759628	0
0	1297	103.275893280823	1
0	1299	103.37505994749	0
0	1301	103.4442172361	1
0	1303	103.543383902767	0
0	1305	104.156412202317	1
0	1307	104.255578868984	0
0	1309	104.402544563124	1
0	1311	104.501711229791	0
0	1313	104.548361961197	1
0	1315	104.647528627864	0
0	1317	104.750850040759	1
0	1319	104.850016707426	0
0	1321	105.148727558701	1
0	1323	105.247894225368	0
0	1325	105.586128116425	1
0	1327	105.685294783092	0
0	1329	106.046213805831	1
0	1331	106.145380472498	0
0	1333	106.314894202049	1
0	1335	106.414060868716	0
0	1337	106.673849368357	1
0	1339	106.70498245279	2
0	1342	106.804149119457	0
0	1344	107.232532317078	1
0	1346	107.331698983745	0
0	1348	107.33910491448	1
0	1350	107.356094864205	2
0	1352	107.402921986938	2
0	1356	107.502088653605	0
0	1358	107.704480300938	1
0	1360	107.718134070434	2
0	1362	107.753339842611	2
0	1366	107.852506509278	0
0	1368	108.048901055032	1
0	1370	108.148067721699	0
0	1372	108.258281278655	1
0	1374	108.301246985549	2
0	1377	108.400413652216	0
0	1379	108.559993956881	1
0	1381	108.659160623548	0
0	1383	108.761484684898	1
0	1385	108.860651351565	0
0	1387	108.940539589961	1
0	1389	109.039706256628	0
0	1391	109.407745271076	1
0	1393	109.411151941738	2
0	1396	109.510318608405	0
0	1398	109.774087628798	1
0	1400	109.81995226763	2
0	1403	109.919118934297	0
0	1405	110.525014001315	1
0	1407	110.624180667982	0
0	1409	110.693998992847	1
0	1411	110.793165659514	0
0	1413	111.018355271747	1
0	1415	111.087211201696	2
0	1418	111.186377868363	0
0	1420	111.390903999474	1
0	1422	111.418946364555	2
0	1425	111.518113031222	0
0	1427	111.723393144441	1
0	1429	111.740358683674	2
0	1432	111.839525350341	0
0	1434	112.26543127224	1
0	1436	112.364597938907	0
0	1438	112.451943207092	1
0	1440	112.459520601587	2
0	1443	112.558687268254	0
0	1445	113.070538364178	1
0	1447	113.169705030845	0
0	1449	113.550698738617	1
0	1451	113.649865405284	0
0	1453	113.770969607178	1
0	1455	113.832671219346	2
0	1458	113.885875849233	2
0	1461	113.9850425159	0
0	1463	114.532516638258	1
0	1465	114.631683304925	0
0	1467	114.662920928792	1
0	1469	114.762087595459	0
0	1471	114.961216727941	1
0	1473	115.060383394608	0
0	1475	115.698859298306	1
0	1477	115.798025964973	0
0	1479	115.860802180512	1
0	1481	115.959968847179	0
0	1483	116.015829916446	1
0	1485	116.114996583113	0
0	1487	116.339015428797	1
0	1489	116.438182095464	0
0	1491	116.447418321023	1
0	1493	116.477104070327	2
0	1496	116.576270736994	0
0	1498	116.883443944333	1
0	1500	116.982610611	0
0	1502	117.444740760648	1
0	1504	117.543907427315	0
0	1506	117.634899056509	1
0	1508	117.734065723176	0
0	1510	117.815318388763	1
0	1512	117.91448505543	0
0	1514	118.009798099466	1
0	1516	118.027366354774	2
0	1519	118.126533021441	0
0	1521	118.441291515764	1
0	1523	118.540458182431	0
0	1525	118.627517595615	1
0	1527	118.726684262282	0
0	1529	119.135845426435	1
0	1531	119.235012093102	0
0	1533	119.337325779615	1
0	1535	119.436492446282	0
0	1537	119.551307191312	1
0	1539	119.650473857979	0
0	1541	120.038816011438	1
0	1543	120.137982678105	0
0	1545	120.331053078566	1
0	1547	120.359412142725	2
0	1550	120.458578809392	0
0	1552	120.687313239945	1
0	1554	120.786479906612	0
0	1556	120.998767801712	1
0	1558	121.078934820603	2
0	1561	121.17810148727	0
0	1563	121.558065142539	1
0	1565	121.657231809206	0
0	1567	123.259604897327	1
0	1569	123.315671541736	2
0	1572	123.414838208403	0
0	1574	123.910494482001	1
0	1576	123.967581250771	2
0	1579	124.066747917438	0
0	1581	124.67934189953	1
0	1583	124.778508566197	0
0	1585	125.415975306682	1
0	1587	125.436079481765	2
0	1590	125.535246148432	0
0	1592	125.945053206116	1
0	1594	126.044219872783	0
0	1596	126.225996092087	1
0	1598	126.313421247941	2
0	1601	126.379443970842	2
0	1604	126.478610637509	0
0	1606	126.517707384517	1
0	1608	126.597070807913	2
0	1611	126.69623747458	0
0	1613	126.872037561833	1
0	1615	126.9712042285	0
0	1617	127.852912483401	1
0	1619	127.922582103605	2
0	1622	128.021748770272	0
0	1624	128.432017449791	1
0	1626	128.531184116458	0
0	1628	128.629468959901	1
0	1630	128.728635626568	0
0	1632	128.838807700983	1
0	1634	128.924157423524	2
0	1637	129.004887479332	2
0	1640	129.104054145999	0
0	1642	129.168323005402	1
0	1644	129.246260378247	2
0	1647	129.329798993804	2
0	1650	129.428965660471	0
0	1652	129.58345096253	1
0	1654	129.617730448416	2
0	1656	129.644785415835	2
0	1660	129.743952082502	0
0	1662	129.949066682851	1
0	1664	130.048233349518	0
0	1666	131.216375580888	1
0	1668	131.251150011796	2
0	1670	131.299750028496	2
0	1674	131.398916695163	0
0	1676	131.541667602092	1
0	1678	131.597004699841	2
0	1681	131.696171366508	0
0	1683	131.717575639897	1
0	1685	131.816742306564	0
0	1687	132.201299389074	1
0	1689	132.300466055741	0
0	1691	132.349508815524	1
0	1693	132.448675482191	0
0	1695	132.669651819499	1
0	1697	132.768818486166	0
0	1699	132.828690486558	1
0	1701	132.927857153225	0
0	1703	133.399726191151	1
0	1705	133.498892857818	0
0	1707	134.248427880997	1
0	1709	134.261772256098	2
0	1712	134.360938922765	0
0	1714	134.385372611828	1
0	1716	134.385444063826	2
0	1719	134.484610730493	0
0	1721	134.849980689073	1
0	1723	134.94914735574	0
0	1725	135.492320424523	1
0	1727	135.59148709119	0
0	1729	135.720064484707	1
0	1731	135.753683247295	2
0	1734	135.831773764898	2
0	1737	135.930940431565	0
0	1739	136.276510090445	1
0	1741	136.375676757112	0
0	1743	136.512211181609	1
0	1745	136.611377848276	0
0	1747	137.208326367248	1
0	1749	137.307493033915	0
0	1751	137.950255003222	1
0	1753	138.049421669889	0
0	1755	138.245719429032	1
0	1757	138.344886095699	0
0	1759	138.374638037178	1
0	1761	138.473804703845	0
0	1763	139.300913564941	1
0	1765	139.400080231608	0
0	1767	139.511439641625	1
0	1769	139.538858867683	2
0	1772	139.63802553435	0
0	1774	139.696567451104	1
0	1776	139.795734117771	0
0	1778	139.912312382152	1
0	1780	140.011479048819	0
0	1782	140.162948974911	1
0	1784	140.262115641578	0
0	1786	140.428530388846	1
0	1788	140.527697055513	0
0	1790	141.145441502502	1
0	1792	141.244608169169	0
0	1794	142.411248835453	1
0	1796	142.51041550212	0
0	1798	142.583111503456	1
0	1800	142.682278170123	0
0	1802	142.751681687337	1
0	1804	142.850848354004	0
0	1806	143.40893435292	1
0	1808	143.508101019587	0
0	1810	144.160339128749	1
0	1812	144.259505795416	0
0	1814	144.934113163665	1
0	1816	145.033279830332	0
0	1818	146.303066639918	1
0	1820	146.402233306585	0
0	1822	146.714972927845	1
0	1824	146.814139594512	0
0	1826	146.931782510418	1
0	1828	147.030949177085	0
0	1830	147.692587086126	1
0	1832	147.791753752793	0
0	1834	148.086672813663	1
0	1836	148.103534222902	2
0	1839	148.202700889569	0
0	1841	148.363761235182	1
0	1843	148.462927901849	0
0	1845	148.475654649155	1
0	1847	148.574821315822	0
0	1849	148.581113191537	1
0	1851	148.680279858204	0
0	1853	148.834422002204	1
0	1855	148.933588668871	0
0	1857	149.281262876077	1
0	1859	149.380429542744	0
0	1861	149.600626455792	1
0	1863	149.699793122459	0
0	1865	150.512650253097	1
0	1867	150.522700600712	2
0	1869	150.594852044962	2
0	1873	150.694018711629	0
0	1875	150.830860088701	1
0	1877	150.930026755368	0
0	1879	150.934276794758	1
0	1881	151.033443461425	0
0	1883	151.34602713418	1
0	1885	151.436153817449	2
0	1888	151.535320484116	0
0	1890	152.234398670937	1
0	1892	152.248723016207	2
0	1895	152.347889682874	0
0	1897	152.501236402251	1
0	1899	152.600403068918	0
0	1901	152.677550873508	1
0	1903	152.776717540175	0
0	1905	152.837303259334	1
0	1907	152.936469926001	0
0	1909	153.002091919833	1
0	1911	153.1012585865	0
0	1913	153.448793560457	1
0	1915	153.547960227124	0
0	1917	153.620776792326	1
0	1919	153.719943458993	0
0	1921	154.028408392155	1
0	1923	154.127575058822	0
0	1925	154.341635343249	1
0	1927	154.440802009916	0
0	1929	154.641397421381	1
0	1931	154.740564088048	0
0	1933	154.843978003705	1
0	1935	154.943144670372	0
0	1937	155.29515890691	1
0	1939	155.394325573577	0
0	1941	155.663350775619	1
0	1943	155.757773370459	2
0	1946	155.856940037126	0
0	1948	156.119504692361	1
0	1950	156.218671359028	0
0	1952	156.409929041303	1
0	1954	156.41787196388	2
0	1957	156.517038630547	0
0	1959	157.193510919353	1
0	1961	157.196475646898	2
0	1964	157.295642313565	0
0	1966	157.489909192929	1
0	1968	157.589075859596	0
0	1970	158.189571457634	1
0	1972	158.288738124301	0
0	1974	158.36228521625	1
0	1976	158.461451882917	0
0	1978	158.598045722681	1
0	1980	158.697212389348	0
0	1982	158.71384507921	1
0	1984	158.813011745877	0
0	1986	158.923430743537	1
0	1988	158.93856764293	2
0	1991	159.037734309597	0
0	1993	159.256395791424	1
0	1995	159.258676616419	2
0	1998	159.357843283086	0
0	2000	159.806264167613	1
0	2002	159.90543083428	0
0	2004	159.988287469184	1
0	2006	160.075880913478	2
0	2009	160.175047580145	0
0	2011	160.312806879551	1
0	2013	160.357220595061	2
0	2015	160.358285458818	2
0	2018	160.438608414995	2
0	2022	160.499521680176	2
0	2025	160.598688346843	0
0	2027	161.089863944282	1
0	2029	161.189030610949	0
0	2031	161.759801510543	1
0	2033	161.85896817721	0
0	2035	161.895774456463	1
0	2037	161.99494112313	0
0	2039	162.402267559234	1
0	2041	162.406316057196	2
0	2043	162.452369480696	2
0	2047	162.551536147363	0
0	2049	162.730718904859	1
0	2051	162.829885571526	0
0	2053	162.864653609802	1
0	2055	162.963820276469	0
0	2057	163.255791134582	1
0	2059	163.354957801249	0
0	2061	163.669893122941	1
0	2063	163.769059789608	0
0	2065	163.78897825257	1
0	2067	163.888144919237	0
0	2069	164.78694906478	1
0	2071	164.886115731447	0
0	2073	165.236887861112	1
0	2075	165.336054527779	0
0	2077	165.765582106942	1
0	2079	165.864748773609	0
0	2081	166.877348899606	1
0	2083	166.976515566273	0
0	2085	167.083814892443	1
0	2087	167.18298155911	0
0	2089	167.234563501796	1
0	2091	167.333730168463	0
0	2093	167.971598608441	1
0	2095	168.070765275108	0
0	2097	168.421536467086	1
0	2099	168.520703133753	0
0	2101	168.650773361204	1
0	2103	168.749940027871	0
0	2105	168.94692977723	1
0	2107	169.046096443897	0
0	2109	169.683607731364	1
0	2111	169.782774398031	0
0	2113	169.93666026737	1
0	2115	169.956546129068	2
0	2117	170.004953494637	2
0	2119	170.009030123295	2
0	2121	170.019282046548	2
0	2127	170.118448713215	0
0	2129	170.17359807297	1
0	2131	170.272764739637	0
0	2133	171.522072217677	1
0	2135	171.621238884344	0
0	2137	172.30934212438	1
0	2139	172.341326007547	2
0	2142	172.440492674214	0
0	2144	172.458124221949	1
0	2146	172.557290888616	0
0	2148	173.015079917104	1
0	2150	173.114246583771	0
0	2152	173.291258275095	1
0	2154	173.390424941762	0
0	2156	173.687705069133	1
0	2158	173.7868717358	0
0	2160	173.806396544854	1
0	2162	173.86081091437	2
0	2165	173.959977581037	0
0	2167	174.109348483584	1
0	2169	174.208515150251	0
0	2171	174.37233555447	1
0	2173	174.471502221137	0
0	2175	174.544946453892	1
0	2177	174.590591277086	2
0	2180	174.666411134178	2
0	2183	174.765577800845	0
0	2185	174.887451462606	1
0	2187	174.986618129273	0
0	2189	175.228188694151	1
0	2191	175.327355360818	0
0	2193	175.397150131751	1
0	2195	175.496316798418	0
0	2197	176.070241135365	1
0	2199	176.169407802032	0
0	2201	176.50384310312	1
0	2203	176.565772355114	2
0	2206	176.664939021781	0
0	2208	176.994646295843	1
0	2210	177.09381296251	0
0	2212	177.224444299526	1
0	2214	177.323610966193	0
0	2216	177.442986893229	1
0	2218	177.542153559896	0
0	2220	177.57484559755	1
0	2222	177.615287986408	2
0	2225	177.714454653075	0
0	2227	178.066380867323	1
0	2229	178.148056935207	2
0	2232	178.247223601874	0
0	2234	178.921098615317	1
0	2236	179.009556082619	2
0	2239	179.023250761663	2
0	2241	179.054611962647	2
0	2245	179.153778629314	0
0	2247	179.51619911646	1
0	2249	179.615365783127	0
0	2251	180.137879812572	1
0	2253	180.237046479239	0
0	2255	180.3155989754	1
0	2257	180.358963864394	2
0	2260	180.458130531061	0
0	2262	181.281052785044	1
0	2264	181.380219451711	0
0	2266	182.548230796457	1
0	2268	182.647397463124	0
0	2270	183.185616918719	1
0	2272	183.277749508207	2
0	2275	183.376916174874	0
0	2277	183.47005008669	1
0	2279	183.474645136237	2
0	2282	183.573811802904	0
0	2284	184.569018012014	1
0	2286	184.668184678681	0
0	2288	184.797305683452	1
0	2290	184.896472350119	0
0	2292	185.836096595443	1
0	2294	185.913406900422	2
0	2297	186.012573567089	0
0	2299	186.129861174439	1