version 3
run PureAlohaExperiment-40-20260306-12:10:23-8840
attr configname PureAlohaExperiment
attr datetime 20260306-12:10:23
attr datetimef 20260306-121023
attr experiment PureAlohaExperiment
attr inifile omnetpp.ini
attr iterationvars "$numHosts=20, $iaMean=9"
attr iterationvarsd numHosts=20/iaMean=9
attr iterationvarsf numHosts=20,iaMean=9-
attr measurement "$numHosts=20, $iaMean=9"
attr network Aloha
attr processid 8840
attr repetition 0
attr replication #0
attr resultdir results
attr runnumber 40
attr seedset 40
itervar iaMean 9
itervar numHosts 20
config description "Channel utilization in the function of packet generation frequency"
config repeat 2
config sim-time-limit 90min
config Aloha.numHosts 20
config Aloha.host[*].iaTime exponential(9s)
config network Aloha
config Aloha.numHosts 20
config Aloha.slotTime 0s
config Aloha.txRate 9.6kbps
config Aloha.host[*].pkLenBits 952b
config **.x "uniform(0m, 1000m)"
config **.y "uniform(0m, 1000m)"
config **.animationHoldTimeOnCollision 0s
config **.idleAnimationSpeed 1
config **.transmissionEdgeAnimationSpeed 1e-6
config **.midTransmissionAnimationSpeed 1e-1

vector 0 Aloha.server serverChannelState:vector ETV
attr enum IDLE=0,TRANSMISSION=1,COLLISION=2
attr recordingmode vector
attr source channelState
attr title "Channel state"
vector 1 Aloha.host[0] radioState:vector ETV
attr enum IDLE=0,TRANSMIT=1
attr recordingmode vector
attr source state
attr title "Radio state"
vector 2 Aloha.host[1] radioState:vector ETV
attr enum IDLE=0,TRANSMIT=1
attr recordingmode vector
attr source state
attr title "Radio state"
vector 3 Aloha.host[2] radioState:vector ETV
attr enum IDLE=0,TRANSMIT=1
attr recordingmode vector
attr source state
attr title "Radio state"
vector 4 Aloha.host[3] radioState:vector ETV
attr enum IDLE=0,TRANSMIT=1
attr recordingmode vector
attr source state
attr title "Radio state"
vector 5 Aloha.host[4] radioState:vector ETV
attr enum IDLE=0,TRANSMIT=1
attr recordingmode vector
attr source state
attr title "Radio state"
vector 6 Aloha.host[5] radioState:vector ETV
attr enum IDLE=0,TRANSMIT=1
attr recordingmode vector
attr source state
attr title "Radio state"
vector 7 Aloha.host[6] radioState:vector ETV
attr enum IDLE=0,TRANSMIT=1
attr recordingmode vector
attr source state
attr title "Radio state"
vector 8 Aloha.host[7] radioState:vector ETV
attr enum IDLE=0,TRANSMIT=1
attr recordingmode vector
attr source state
attr title "Radio state"
vector 9 Aloha.host[8] radioState:vector ETV
attr enum IDLE=0,TRANSMIT=1
attr recordingmode vector
attr source state
attr title "Radio state"
vector 10 Aloha.host[9] radioState:vector ETV
attr enum IDLE=0,TRANSMIT=1
attr recordingmode vector
attr source state
attr title "Radio state"
vector 11 Aloha.host[10] radioState:vector ETV
attr enum IDLE=0,TRANSMIT=1
attr recordingmode vector
attr source state
attr title "Radio state"
vector 12 Aloha.host[11] radioState:vector ETV
attr enum IDLE=0,TRANSMIT=1
attr recordingmode vector
attr source state
attr title "Radio state"
vector 13 Aloha.host[12] radioState:vector ETV
attr enum IDLE=0,TRANSMIT=1
attr recordingmode vector
attr source state
attr title "Radio state"
vector 14 Aloha.host[13] radioState:vector ETV
attr enum IDLE=0,TRANSMIT=1
attr recordingmode vector
attr source state
attr title "Radio state"
vector 15 Aloha.host[14] radioState:vector ETV
attr enum IDLE=0,TRANSMIT=1
attr recordingmode vector
attr source state
attr title "Radio state"
vector 16 Aloha.host[15] radioState:vector ETV
attr enum IDLE=0,TRANSMIT=1
attr recordingmode vector
attr source state
attr title "Radio state"
vector 17 Aloha.host[16] radioState:vector ETV
attr enum IDLE=0,TRANSMIT=1
attr recordingmode vector
attr source state
attr title "Radio state"
vector 18 Aloha.host[17] radioState:vector ETV
attr enum IDLE=0,TRANSMIT=1
attr recordingmode vector
attr source state
attr title "Radio state"
vector 19 Aloha.host[18] radioState:vector ETV
attr enum IDLE=0,TRANSMIT=1
attr recordingmode vector
attr source state
attr title "Radio state"
vector 20 Aloha.host[19] radioState:vector ETV
attr enum IDLE=0,TRANSMIT=1
attr recordingmode vector
attr source state
attr title "Radio state"
vector 21 Aloha.server channelUtilizationVector:vector ETV
attr interpolationmode linear
attr recordingmode vector
attr source timeavg(receive)
attr title "channel utilization evolution"
0	0	0	0
0	2	0.902667191222	1
0	4	1.001833857889	0
0	6	1.662573533548	1
0	8	1.761740200215	0
0	10	2.13000377603	1
0	12	2.229170442697	0
0	14	2.36130662869	1
0	16	2.460473295357	0
0	18	3.003626086995	1
0	20	3.102792753662	0
0	22	3.980255112405	1
0	24	4.079421779072	0
0	26	5.050761800039	1
0	28	5.149928466706	0
0	30	5.336976471828	1
0	32	5.366589104375	2
0	35	5.465755771042	0
0	37	6.389162029628	1
0	39	6.488328696295	0
0	41	6.86246323242	1
0	43	6.875538452476	2
0	46	6.974705119143	0
0	48	7.672873092885	1
0	50	7.738461171832	2
0	53	7.787120685672	2
0	56	7.886287352339	0
0	58	8.59651104087	1
0	60	8.622664032638	2
0	63	8.721830699305	0
0	65	8.948844224521	1
0	67	9.048010891188	0
0	69	9.118245464464	1
0	71	9.217412131131	0
0	73	9.553503838903	1
0	75	9.640586640555	2
0	78	9.739753307222	0
0	80	9.972370073617	1
0	82	10.071536740284	0
0	84	10.130470643044	1
0	86	10.204235547473	2
0	89	10.261022848341	2
0	92	10.360189515008	0
0	94	11.192214757164	1
0	96	11.291381423831	0
0	98	11.306267100153	1
0	100	11.40543376682	0
0	102	12.135883114528	1
0	104	12.235049781195	0
0	106	12.468453082919	1
0	108	12.567619749586	0
0	110	12.930353625066	1
0	112	13.029520291733	0
0	114	14.126065449341	1
0	116	14.187133966969	2
0	119	14.286300633636	0
0	121	14.289861970628	1
0	123	14.389028637295	0
0	125	14.508963532784	1
0	127	14.509242791443	2
0	130	14.60840945811	0
0	132	14.64099167008	1
0	134	14.734539174089	2
0	137	14.833705840756	0
0	139	16.125832004572	1
0	141	16.218182127122	2
0	144	16.317348793789	0
0	146	17.305076825536	1
0	148	17.338870718758	2
0	151	17.438037385425	0
0	153	17.713177817304	1
0	155	17.812344483971	0
0	157	18.972467687298	1
0	159	18.975327436902	2
0	162	19.074494103569	0
0	164	20.194274554644	1
0	166	20.293441221311	0
0	168	20.759721784853	1
0	170	20.85888845152	0
0	172	20.933301458097	1
0	174	21.032468124764	0
0	176	21.180030994506	1
0	178	21.279197661173	0
0	180	22.051652427702	1
0	182	22.150819094369	0
0	184	22.257280509364	1
0	186	22.333995900638	2
0	189	22.433162567305	0
0	191	22.484806099159	1
0	193	22.583972765826	0
0	195	22.800518102057	1
0	197	22.899684768724	0
0	199	22.97907870312	1
0	201	23.078245369787	0
0	203	24.024722227208	1
0	205	24.123888893875	0
0	207	24.772998770237	1
0	209	24.872165436904	0
0	211	25.114581464987	1
0	213	25.131882660492	2
0	216	25.231049327159	0
0	218	25.374760829918	1
0	220	25.473927496585	0
0	222	26.64635179828	1
0	224	26.745518464947	0
0	226	26.751578978217	1
0	228	26.850745644884	0
0	230	26.900533506594	1
0	232	26.999700173261	0
0	234	27.122368093344	1
0	236	27.221534760011	0
0	238	27.367944075298	1
0	240	27.467110741965	0
0	242	27.471692096064	1
0	244	27.570858762731	0
0	246	28.349504461789	1
0	248	28.393499967453	2
0	250	28.402923301536	2
0	254	28.502089968203	0
0	256	28.844722574615	1
0	258	28.941062125052	2
0	261	29.040228791719	0
0	263	29.381306290405	1
0	265	29.480472957072	0
0	267	30.971326915293	1
0	269	31.07049358196	0
0	271	31.176278837612	1
0	273	31.275445504279	0
0	275	31.612577232941	1
0	277	31.711743899608	0
0	279	32.036344244878	1
0	281	32.107974304107	2
0	284	32.207140970774	0
0	286	32.977521382461	1
0	288	33.065338287512	2
0	291	33.108511151008	2
0	294	33.207677817675	0
0	296	33.270538070012	1
0	298	33.27773671986	2
0	301	33.376903386527	0
0	303	33.694206282918	1
0	305	33.696061920673	2
0	308	33.79522858734	0
0	310	33.800834386538	1
0	312	33.900001053205	0
0	314	33.977591961352	1
0	316	34.076758628019	0
0	318	34.189660277937	1
0	320	34.210198778882	2
0	323	34.309365445549	0
0	325	36.472710800666	1
0	327	36.490575401364	2
0	330	36.589742068031	0
0	332	37.721864780524	1
0	334	37.815408661657	2
0	337	37.914575328324	0
0	339	38.640092851603	1
0	341	38.73925951827	0
0	343	38.833903927893	1
0	345	38.891787740365	2
0	348	38.990954407032	0
0	350	39.149709633257	1
0	352	39.194082312284	2
0	355	39.293248978951	0
0	357	39.3582778155	1
0	359	39.457444482167	0
0	361	40.67987883577	1
0	363	40.779045502437	0
0	365	40.976368091735	1
0	367	41.075534758402	0
0	369	41.095616495467	1
0	371	41.161029082207	2
0	374	41.260195748874	0
0	376	41.399804557352	1
0	378	41.498971224019	0
0	380	41.607776866125	1
0	382	41.706943532792	0
0	384	42.367481133192	1
0	386	42.409308939755	2
0	389	42.508475606422	0
0	391	42.699105257355	1
0	393	42.798271924022	0
0	395	42.838868434309	1
0	397	42.938035100976	0
0	399	45.601309860322	1
0	401	45.700476526989	0
0	403	45.841558007721	1
0	405	45.940724674388	0
0	407	46.237369856161	1
0	409	46.336536522828	0
0	411	46.923585508308	1
0	413	46.936587627523	2
0	416	47.03575429419	0
0	418	47.18139765083	1
0	420	47.256379449285	2
0	422	47.280050252736	2
0	426	47.379216919403	0
0	428	47.56094792337	1
0	430	47.660114590037	0
0	432	48.357864969031	1
0	434	48.457031635698	0
0	436	48.718260673112	1
0	438	48.751353925963	2
0	441	48.85052059263	0
0	443	50.082367478258	1
0	445	50.181534144925	0
0	447	50.767485153819	1
0	449	50.866651820486	0
0	451	51.376991713643	1
0	453	51.47615838031	0
0	455	51.782124409289	1
0	457	51.881291075956	0
0	459	52.151884348134	1
0	461	52.251051014801	0
0	463	52.335913590017	1
0	465	52.435080256684	0
0	467	53.048254648275	1
0	469	53.147421314942	0
0	471	53.381008206397	1
0	473	53.480174873064	0
0	475	53.511389242864	1
0	477	53.610555909531	0
0	479	53.847299102302	1
0	481	53.946465768969	0
0	483	54.966722132971	1
0	485	55.065888799638	0
0	487	55.611080389337	1
0	489	55.710247056004	0
0	491	56.621079944858	1
0	493	56.720246611525	0
0	495	56.951780648881	1
0	497	57.050947315548	0
0	499	57.509999613919	1
0	501	57.609166280586	0
0	503	58.135066928225	1
0	505	58.207748075948	2
0	508	58.306914742615	0
0	510	59.22928521143	1
0	512	59.328451878097	0
0	514	60.165990609104	1
0	516	60.265157275771	0
0	518	60.538988958189	1
0	520	60.638155624856	0
0	522	60.920817427274	1
0	524	61.019984093941	0
0	526	61.583498784287	1
0	528	61.682665450954	0
0	530	62.405817769239	1
0	532	62.504984435906	0
0	534	62.638115835634	1
0	536	62.677537413492	2
0	539	62.77538235252	2
0	542	62.874549019187	0
0	544	63.687093430563	1
0	546	63.78626009723	0
0	548	63.787616593565	1
0	550	63.789641433973	2
0	553	63.88880810064	0
0	555	63.964920896564	1
0	557	64.064087563231	0
0	559	64.356449198235	1
0	561	64.455615864902	0
0	563	64.833292881688	1
0	565	64.932459548355	0
0	567	65.085295476238	1
0	569	65.139561403462	2
0	572	65.238728070129	0
0	574	66.581888478033	1
0	576	66.6810551447	0
0	578	66.939325465588	1
0	580	67.038492132255	0
0	582	67.526168513061	1
0	584	67.625335179728	0
0	586	68.198310698864	1
0	588	68.297477365531	0
0	590	69.059426339717	1
0	592	69.129997424051	2
0	595	69.229164090718	0
0	597	69.453560549861	1
0	599	69.552727216528	0
0	601	69.592097512441	1
0	603	69.655165922441	2
0	606	69.754332589108	0
0	608	70.691099200415	1
0	610	70.790265867082	0
0	612	70.848404919212	1
0	614	70.947571585879	0
0	616	70.971136185741	1
0	618	71.070302852408	0
0	620	71.24665013007	1
0	622	71.345816796737	0
0	624	71.509297288727	1
0	626	71.608463955394	0
0	628	71.802914321312	1
0	630	71.902080987979	0
0	632	72.248580512757	1
0	634	72.347747179424	0
0	636	72.357236382853	1
0	638	72.45640304952	0
0	640	72.485206374535	1
0	642	72.584373041202	0
0	644	73.669522492297	1
0	646	73.768689158964	0
0	648	73.784997745027	1
0	650	73.884164411694	0
0	652	74.339263042461	1
0	654	74.438429709128	0
0	656	75.032459533353	1
0	658	75.13162620002	0
0	660	76.551721892328	1
0	662	76.650888558995	0
0	664	78.103901123161	1
0	666	78.203067789828	0
0	668	79.649512270084	1
0	670	79.748678936751	0
0	672	80.083259817447	1
0	674	80.182426484114	0
0	676	80.422338362796	1
0	678	80.521505029463	0
0	680	80.894970393039	1
0	682	80.994137059706	0
0	684	81.003891528094	1
0	686	81.103058194761	0
0	688	81.311147609157	1
0	690	81.410314275824	0
0	692	81.629042478781	1
0	694	81.728209145448	0
0	696	82.508031115277	1
0	698	82.607197781944	0
0	700	82.611038585907	1
0	702	82.710205252574	0
0	704	83.355601351045	1
0	706	83.454768017712	0
0	708	83.720033337196	1
0	710	83.819200003863	0
0	712	84.054445934771	1
0	714	84.153612601438	0
0	716	84.512546287011	1
0	718	84.611712953678	0
0	720	85.526370448004	1
0	722	85.625537114671	0
0	724	85.903631877148	1
0	726	86.002798543815	0
0	728	86.373910270346	1
0	730	86.38216582509	2
0	733	86.481332491757	0
0	735	86.707020553738	1
0	737	86.806187220405	0
0	739	87.389510686541	1
0	741	87.488677353208	0
0	743	87.510191929205	1
0	745	87.609358595872	0
0	747	87.632296012949	1
0	749	87.731462679616	0
0	751	87.798051693077	1
0	753	87.897218359744	0
0	755	88.146818189843	1
0	757	88.24598485651	0
0	759	88.402475207132	1
0	761	88.501641873799	0
0	763	88.759274647264	1
0	765	88.77069321129	2
0	768	88.869859877957	0
0	770	89.016196897563	1
0	772	89.11536356423	0
0	774	89.128498142451	1
0	776	89.166310295419	2
0	779	89.265476962086	0
0	781	89.280503008574	1
0	783	89.379669675241	0
0	785	90.157651080664	1
0	787	90.256817747331	0
0	789	90.712104834366	1
0	791	90.811271501033	0
0	793	91.471857714139	1
0	795	91.571024380806	0
0	797	91.647013518121	1
0	799	91.746180184788	0
0	801	91.766526749344	1
0	803	91.857697322861	2
0	806	91.956863989528	0
0	808	92.020600502262	1
0	810	92.060840144074	2
0	813	92.160006810741	0
0	815	92.983910990264	1
0	817	93.083077656931	0
0	819	93.137119272826	1
0	821	93.236285939493	0
0	823	93.276596569182	1
0	825	93.375763235849	0
0	827	93.84763254335	1
0	829	93.946799210017	0
0	831	94.610816332076	1
0	833	94.709982998743	0
0	835	95.427482419787	1
0	837	95.526649086454	0
0	839	95.55547087148	1
0	841	95.654637538147	0
0	843	96.512599762884	1
0	845	96.611766429551	0
0	847	97.358328990267	1
0	849	97.417476568198	2
0	852	97.516643234865	0
0	854	97.734953247383	1
0	856	97.83411991405	0
0	858	98.034704254641	1
0	860	98.133870921308	0
0	862	98.60220322726	1
0	864	98.701369893927	0
0	866	98.850339867229	1
0	868	98.949506533896	0
0	870	99.10256056764	1
0	872	99.201727234307	0
0	874	100.631762128448	1
0	876	100.730928795115	0
0	878	101.995742491599	1
0	880	102.094909158266	0
0	882	102.141840460582	1
0	884	102.241007127249	0
0	886	103.281431294594	1
0	888	103.380597961261	0
0	890	103.59681260358	1
0	892	103.695979270247	0
0	894	103.74920751614	1
0	896	103.848374182807	0
0	898	104.71471600834	1
0	900	104.813882675007	0
0	902	106.099883207	1
0	904	106.199049873667	0
0	906	106.940479401853	1
0	908	107.03964606852	0
0	910	107.189334364404	1
0	912	107.288501031071	0
0	914	107.420437740893	1
0	916	107.51960440756	0
0	918	107.519750559225	1
0	920	107.606585698271	2
0	923	107.705752364938	0
0	925	107.756236954964	1
0	927	107.855403621631	0
0	929	108.337613698436	1
0	931	108.417125889589	2
0	934	108.505333459345	2
0	937	108.604500126012	0
0	939	109.380472522499	1
0	941	109.428066863067	2
0	943	109.46479074174	2
0	947	109.563957408407	0
0	949	109.589066872644	1
0	951	109.688233539311	0
0	953	109.937757234147	1
0	955	110.036923900814	0
0	957	112.163289512147	1
0	959	112.262456178814	0
0	961	112.522535823296	1
0	963	112.621702489963	0
0	965	112.928468168406	1
0	967	112.939794462368	2
0	970	113.038961129035	0
0	972	113.078659214707	1
0	974	113.177825881374	0
0	976	113.369898285425	1
0	978	113.469064952092	0
0	980	113.499973975603	1
0	982	113.59914064227	0
0	984	114.094077406098	1
0	986	114.109332554659	2
0	988	114.166066929292	2
0	992	114.265233595959	0
0	994	114.360029061468	1
0	996	114.459195728135	0
0	998	114.576707944821	1
0	1000	114.675874611488	0
0	1002	114.873530938771	1
0	1004	114.948002494944	2
0	1007	115.047169161611	0
0	1009	115.744961791543	1
0	1011	115.84412845821	0
0	1013	116.060524640556	1
0	1015	116.159691307223	0
0	1017	116.357466516734	1
0	1019	116.456633183401	0
0	1021	116.608734542715	1
0	1023	116.707901209382	0
0	1025	117.993734627851	1
0	1027	118.046676616157	2
0	1030	118.145843282824	0
0	1032	118.579061628907	1
0	1034	118.678228295574	0
0	1036	119.219590946012	1
0	1038	119.278215522543	2
0	1041	119.37738218921	0
0	1043	120.792838862262	1
0	1045	120.892005528929	0
0	1047	121.005886630232	1
0	1049	121.105053296899	0
0	1051	121.864951615238	1
0	1053	121.964118281905	0
0	1055	121.980574112533	1
0	1057	122.0797407792	0
0	1059	122.4779653741	1
0	1061	122.577132040767	0
0	1063	123.548097468396	1
0	1065	123.582809754517	2
0	1068	123.681976421184	0
0	1070	124.319664288939	1
0	1072	124.418830955606	0
0	1074	124.480118852782	1
0	1076	124.579285519449	0
0	1078	124.720204888682	1
0	1080	124.798654519997	2
0	1083	124.897821186664	0
0	1085	125.349931547584	1
0	1087	125.449098214251	0
0	1089	125.532963270516	1
0	1091	125.632129937183	0
0	1093	125.635888541316	1
0	1095	125.735055207983	0
0	1097	126.370267575289	1
0	1099	126.469434241956	0
0	1101	127.035150037527	1
0	1103	127.134316704194	0
0	1105	127.364120262363	1
0	1107	127.46328692903	0
0	1109	127.611850777019	1
0	1111	127.711017443686	0
0	1113	128.087722627502	1
0	1115	128.186889294169	0
0	1117	128.531188920121	1
0	1119	128.630355586788	0
0	1121	129.464223117862	1
0	1123	129.55302130504	2
0	1126	129.652187971707	0
0	1128	130.058599162249	1
0	1130	130.157765828916	0
0	1132	130.704309752549	1
0	1134	130.803476419216	0
0	1136	130.927271230293	1
0	1138	131.02643789696	0
0	1140	131.521399142139	1
0	1142	131.620565808806	0
0	1144	131.758802326212	1
0	1146	131.857878456969	2
0	1149	131.957045123636	0
0	1151	133.232572555535	1
0	1153	133.331739222202	0
0	1155	133.542169510846	1
0	1157	133.641336177513	0
0	1159	133.892526095565	1
0	1161	133.991692762232	0
0	1163	135.368903231272	1
0	1165	135.468069897939	0
0	1167	135.636854393193	1
0	1169	135.73602105986	0
0	1171	136.613895160502	1
0	1173	136.713061827169	0
0	1175	137.074827209836	1
0	1177	137.173993876503	0
0	1179	137.38977594194	1
0	1181	137.488942608607	0
0	1183	137.837887268849	1
0	1185	137.937053935516	0
0	1187	138.348485230031	1
0	1189	138.447651896698	0
0	1191	138.505166699571	1
0	1193	138.604333366238	0
0	1195	138.877238087975	1
0	1197	138.976404754642	0
0	1199	139.28808650055	1
0	1201	139.296195350175	2
0	1204	139.395362016842	0
0	1206	139.443743065989	1
0	1208	139.446934627834	2
0	1211	139.546101294501	0
0	1213	140.698300591405	1
0	1215	140.797467258072	0
0	1217	141.761690839628	1
0	1219	141.860857506295	0
0	1221	142.275071359329	1
0	1223	142.374238025996	0
0	1225	142.986215773878	1
0	1227	143.085382440545	0
0	1229	143.56124741022	1
0	1231	143.660414076887	0
0	1233	144.855200235677	1
0	1235	144.954366902344	0
0	1237	145.436186072274	1
0	1239	145.522516011933	2
0	1242	145.560096209085	2
0	1245	145.659262875752	0
0	1247	145.779440328682	1
0	1249	145.84761025898	2
0	1252	145.946776925647	0
0	1254	147.515916529419	1
0	1256	147.615083196086	0
0	1258	147.887913788656	1
0	1260	147.987080455323	0
0	1262	149.142289326092	1
0	1264	149.241455992759	0
0	1266	149.593586516012	1
0	1268	149.692753182679	0
0	1270	150.573440136981	1
0	1272	150.672606803648	0
0	1274	150.820438626241	1
0	1276	150.919605292908	0
0	1278	151.254483968554	1
0	1280	151.353650635221	0
0	1282	151.510036582364	1
0	1284	151.570773950252	2
0	1287	151.669940616919	0
0	1289	151.757131304285	1
0	1291	151.762378447397	2
0	1293	151.841509244392	2
0	1297	151.940675911059	0
0	1299	152.352201613437	1
0	1301	152.451368280104	0
0	1303	153.337942765904	1
0	1305	153.437109432571	0
0	1307	153.531706064276	1
0	1309	153.630872730943	0
0	1311	154.142307373769	1
0	1313	154.241474040436	0
0	1315	154.392306097005	1
0	1317	154.491472763672	0
0	1319	154.495395081786	1
0	1321	154.590299833731	2
0	1324	154.689466500398	0
0	1326	154.771372201342	1
0	1328	154.870538868009	0
0	1330	154.904640634006	1
0	1332	155.003807300673	0
0	1334	155.355610026571	1
0	1336	155.454776693238	0
0	1338	155.482100585599	1
0	1340	155.545336927572	2
0	1343	155.607179636759	2
0	1346	155.706346303426	0
0	1348	156.211580448972	1
0	1350	156.310747115639	0
0	1352	156.679913582921	1
0	1354	156.779080249588	0
0	1356	156.86655784196	1
0	1358	156.908351730781	2
0	1361	156.971576844521	2
0	1364	157.070743511188	0
0	1366	157.253079816274	1
0	1368	157.352246482941	0
0	1370	157.648340108195	1
0	1372	157.747506774862	0
0	1374	158.855673669104	1
0	1376	158.954840335771	0
0	1378	159.197367204149	1
0	1380	159.296533870816	0
0	1382	159.993610197245	1
0	1384	160.092776863912	0
0	1386	160.575437896525	1
0	1388	160.674604563192	0
0	1390	161.331585139926	1
0	1392	161.430751806593	0
0	1394	161.768730437727	1
0	1396	161.867897104394	0
0	1398	162.238151906048	1
0	1400	162.279099711986	2
0	1403	162.378266378653	0
0	1405	162.802747386435	1
0	1407	162.901914053102	0
0	1409	163.988190770127	1
0	1411	164.087357436794	0
0	1413	164.41060119571	1
0	1415	164.418557509356	2
0	1418	164.517724176023	0
0	1420	164.667520857988	1
0	1422	164.738990390119	2
0	1425	164.838157056786	0
0	1427	164.961155497839	1
0	1429	165.049928091995	2
0	1432	165.149094758662	0
0	1434	165.222276186955	1
0	1436	165.321442853622	0
0	1438	166.080950893134	1
0	1440	166.180117559801	0
0	1442	166.397419732938	1
0	1444	166.496586399605	0
0	1446	166.792045550908	1
0	1448	166.891212217575	0
0	1450	167.135346522954	1
0	1452	167.234513189621	0
0	1454	168.936594103162	1
0	1456	169.035760769829	0
0	1458	169.158139580716	1
0	1460	169.179972413572	2
0	1462	169.201744144446	2
0	1465	169.272382186599	2
0	1469	169.371548853266	0
0	1471	169.480044126025	1
0	1473	169.579210792692	0
0	1475	169.664381553828	1
0	1477	169.763548220495	0
0	1479	169.919570867946	1
0	1481	170.018737534613	0
0	1483	170.021971854095	1
0	1485	170.121138520762	0
0	1487	170.13218205352	1
0	1489	170.231348720187	0
0	1491	170.294564956875	1
0	1493	170.314243432895	2
0	1496	170.404221999499	2
0	1499	170.503388666166	0
0	1501	171.307522375945	1
0	1503	171.406689042612	0
0	1505	171.484158776033	1
0	1507	171.5833254427	0
0	1509	171.629096693959	1
0	1511	171.728263360626	0
0	1513	172.507380675293	1
0	1515	172.60654734196	0
0	1517	173.460592652266	1
0	1519	173.559759318933	0
0	1521	173.584135382326	1
0	1523	173.683302048993	0
0	1525	173.709413036034	1
0	1527	173.803167947514	2
0	1530	173.902334614181	0
0	1532	174.56002462389	1
0	1534	174.659191290557	0
0	1536	175.069583398353	1
0	1538	175.16875006502	0
0	1540	175.286156147539	1
0	1542	175.321208764258	2
0	1545	175.420375430925	0
0	1547	175.521267485706	1
0	1549	175.620434152373	0
0	1551	175.701918350137	1
0	1553	175.801085016804	0
0	1555	176.212257640616	1
0	1557	176.311424307283	0
0	1559	177.125323868636	1
0	1561	177.193110300749	2
0	1564	177.252799975986	2
0	1567	177.294767083673	2
0	1570	177.39393375034	0
0	1572	177.409531281905	1
0	1574	177.508697948572	0
0	1576	177.627480302731	1
0	1578	177.726646969398	0
0	1580	179.512698033777	1
0	1582	179.611864700444	0
0	1584	179.646323571195	1
0	1586	179.745490237862	0
0	1588	181.411459848481	1
0	1590	181.510626515148	0
0	1592	181.526426609833	1
0	1594	181.6255932765	0
0	1596	182.058779984397	1
0	1598	182.157946651064	0
0	1600	182.849557285877	1
0	1602	182.948723952544	0
0	1604	184.835378500965	1
0	1606	184.934545167632	0
0	1608	185.999438569758	1
0	1610	186.098605236425	0
0	1612	186.515171596465	1
0	1614	186.614338263132	0
0	1616	186.855819677731	1
0	1618	186.954986344398	0
0	1620	186.996235662756	1
0	1622	187.095402329423	0
0	1624	187.451739760989	1
0	1626	187.550906427656	0
0	1628	187.722572143881	1
0	1630	187.821738810548	0
0	1632	187.902669158913	1
0	1634	187.945535332402	2
0	1637	188.044701999069	0
0	1639	188.557922160069	1
0	1641	188.657088826736	0
0	1643	189.408331689341	1
0	1645	189.507498356008	0
0	1647	189.835205464059	1
0	1649	189.934372130726	0
0	1651	190.495587021281	1
0	1653	190.594753687948	0
0	1655	190.605477711401	1
0	1657	190.704644378068	0
0	1659	190.941818445361	1
0	1661	191.040985112028	0
0	1663	191.108080751663	1
0	1665	191.146655858885	2
0	1668	191.245822525552	0
0	1670	192.597036130523	1
0	1672	192.69620279719	0
0	1674	192.954008879196	1
0	1676	193.053175545863	0
0	1678	193.237431753151	1
0	1680	193.336598419818	0
0	1682	193.369933991726	1
0	1684	193.469100658393	0
0	1686	194.017711699636	1
0	1688	194.116878366303	0
0	1690	194.644012799731	1
0	1692	194.650637064685	2
0	1695	194.749803731352	0
0	1697	194.780845984955	1
0	1699	194.880012651622	0
0	1701	195.501594048772	1
0	1703	195.600760715439	0
0	1705	195.699753624981	1
0	1707	195.77948710309	2
0	1710	195.878653769757	0
0	1712	195.987573331369	1
0	1714	196.086739998036	0
0	1716	196.782219129574	1
0	1718	196.818694147673	2
0	1721	196.91786081434	0
0	1723	197.025937831043	1
0	1725	197.12510449771	0
0	1727	197.478043402479	1
0	1729	197.577210069146	0
0	1731	197.585129572792	1
0	1733	197.684296239459	0
0	1735	197.794610960743	1
0	1737	197.89377762741	0
0	1739	198.456975472116	1
0	1741	198.556142138783	0
0	1743	198.98538417607	1
0	1745	199.084550842737	0
0	1747	199.820428273903	1
0	1749	199.91959494057	0
0	1751	204.087855305316	1
0	1753	204.145888601426	2
0	1755	204.181559037988	2
0	1759	204.280725704655	0
0	1761	204.750721165706	1
0	1763	204.802875176121	2
0	1766	204.902041842788	0
0	1768	204.92286097303	1
0	1770	205.022027639697	0
0	1772	205.850724055527	1
0	1774	205.949890722194	0
0	1776	206.348598841388	1
0	1778	206.35397649581	2
0	1781	206.453143162477	0
0	1783	206.578755704197	1
0	1785	206.677922370864	0
0	1787	207.34877082342	1
0	1789	207.447937490087	0
0	1791	207.585075154385	1
0	1793	207.684241821052	0
0	1795	208.052854055313	1
0	1797	208.15202072198	0
0	1799	208.191127088093	1
0	1801	208.29029375476	0
0	1803	208.458394772351	1
0	1805	208.557561439018	0
0	1807	209.083874524769	1
0	1809	209.183041191436	0
0	1811	209.674359819141	1
0	1813	209.773526485808	0
0	1815	210.092195223824	1
0	1817	210.191361890491	0
0	1819	210.717271635633	1
0	1821	210.8164383023	0
0	1823	210.817260855957	1
0	1825	210.916427522624	0
0	1827	211.1444778091	1
0	1829	211.243644475767	0
0	1831	211.359723037532	1
0	1833	211.458889704199	0
0	1835	211.620524452195	1
0	1837	211.719691118862	0
0	1839	211.935730306515	1
0	1841	212.034896973182	0
0	1843	212.588856596072	1
0	1845	212.688023262739	0
0	1847	212.723511902381	1
0	1849	212.822678569048	0
0	1851	213.201448637013	1
0	1853	213.30061530368	0
0	1855	213.317039730704	1
0	1857	213.416206397371	0
0	1859	213.809359312315	1
0	1861	213.908525978982	0
0	1863	214.404743815783	1
0	1865	214.50391048245	0
0	1867	214.553519817713	1
0	1869	214.65268648438	0
0	1871	214.839654142459	1
0	1873	214.938820809126	0
0	1875	215.463620193884	1
0	1877	215.500936993235	2
0	1880	215.600103659902	0
0	1882	215.632102773563	1
0	1884	215.73126944023	0
0	1886	216.348396912056	1
0	1888	216.447563578723	0
0	1890	216.744016513616	1
0	1892	216.843183180283	0
0	1894	217.564580846843	1
0	1896	217.66374751351	0
0	1898	217.890309255237	1
0	1900	217.989475921904	0
0	1902	218.110345522184	1
0	1904	218.209512188851	0
0	1906	218.509928788124	1
0	1908	218.609095454791	0
0	1910	218.782099530674	1
0	1912	218.87087525271	2
0	1915	218.970041919377	0
0	1917	219.06421324241	1
0	1919	219.163379909077	0
0	1921	219.27467997441	1
0	1923	219.373846641077	0
0	1925	219.562208452265	1
0	1927	219.661375118932	0
0	1929	219.738491372325	1
0	1931	219.837658038992	0
0	1933	219.881488603235	1
0	1935	219.980655269902	0
0	1937	220.095953728623	1
0	1939	220.181720540883	2
0	1942	220.28088720755	0
0	1944	220.643220824285	1
0	1946	220.679114011157	2
0	1949	220.778280677824	0
0	1951	221.070422993911	1
0	1953	221.158997870707	2
0	1956	221.258164537374	0
0	1958	221.349472740185	1
0	1960	221.448639406852	0
0	1962	221.579559751339	1
0	1964	221.678726418006	0
0	1966	221.856469072246	1
0	1968	221.955635738913	0
0	1970	222.799809667714	1
0	1972	222.898976334381	0
0	1974	222.952091850104	1
0	1976	223.051258516771	0
0	1978	223.248801280499	1
0	1980	223.347967947166	0
0	1982	223.621921521705	1
0	1984	223.721088188372	0
0	1986	223.880083517879	1
0	1988	223.979250184546	0
0	1990	224.018159631166	1
0	1992	224.117326297833	0
0	1994	224.1765305206	1
0	1996	224.275697187267	0
0	1998	224.332495008296	1
0	2000	224.431661674963	0
0	2002	225.40734472581	1
0	2004	225.506511392477	0
0	2006	225.703817624783	1
0	2008	225.764995868545	2
0	2011	225.864162535212	0
0	2013	226.558101852201	1
0	2015	226.657268518868	0
0	2017	228.555381358435	1
0	2019	228.615778313878	2
0	2022	228.714944980545	0
0	2024	228.865299794568	1
0	2026	228.964466461235	0
0	2028	229.049771270613	1
0	2030	229.14893793728	0
0	2032	229.510730881501	1
0	2034	229.51419052255	2
0	2036	229.528134968606	2
0	2038	229.53953961245	2
0	2043	229.638706279117	0
0	2045	229.711485676782	1
0	2047	229.810652343449	0
0	2049	230.00807383114	1
0	2051	230.078986909823	2
0	2054	230.133393713556	2
0	2057	230.232560380223	0
0	2059	231.593240107345	1
0	2061	231.692406774012	0
0	2063	231.79832506956	1
0	2065	231.897491736227	0
0	2067	232.703640240039	1
0	2069	232.730488347157	2
0	2072	232.829655013824	0
0	2074	232.992832516264	1
0	2076	233.091999182931	0
0	2078	233.284401570718	1
0	2080	233.316257465688	2
0	2083	233.415424132355	0
0	2085	234.25599215268	1
0	2087	234.355158819347	0
0	2089	234.728518009902	1
0	2091	234.753911265621	2
0	2094	234.853077932288	0
0	2096	234.896727985647	1
0	2098	234.995894652314	0
0	2100	235.111519291344	1
0	2102	235.137570169153	2
0	2105	235.23673683582	0
0	2107	235.431506794481	1
0	2109	235.525646305015	2
0	2112	235.624812971682	0
0	2114	236.107927626626	1
0	2116	236.207094293293	0
0	2118	236.342501395312	1
0	2120	236.441668061979	0
0	2122	236.47014220255	1
0	2124	236.5005227157	2
0	2126	236.563820217113	2
0	2130	236.66298688378	0
0	2132	237.528152090958	1
0	2134	237.627318757625	0
0	2136	237.759610044451	1
0	2138	237.858776711118	0
0	2140	238.412498533483	1
0	2142	238.49713784559	2
0	2145	238.596304512257	0
0	2147	239.251440146953	1
0	2149	239.35060681362	0
0	2151	239.362072302955	1
0	2153	239.461238969622	0
0	2155	239.546385098545	1
0	2157	239.560587552792	2
0	2160	239.659754219459	0
0	2162	239.947512458324	1
0	2164	240.046679124991	0
0	2166	240.696306046809	1
0	2168	240.795472713476	0
0	2170	240.887490157225	1
0	2172	240.986656823892	0
0	2174	241.011909523491	1