version 3
run PureAlohaExperiment-41-20260306-12:10:23-8840
attr configname PureAlohaExperiment
attr datetime 20260306-12:10:23
attr datetimef 20260306-121023
attr experiment PureAlohaExperiment
attr inifile omnetpp.ini
attr iterationvars "$numHosts=20, $iaMean=9"
attr iterationvarsd numHosts=20/iaMean=9
attr iterationvarsf numHosts=20,iaMean=9-
attr measurement "$numHosts=20, $iaMean=9"
attr network Aloha
attr processid 8840
attr repetition 1
attr replication #1
attr resultdir results
attr runnumber 41
attr seedset 41
itervar iaMean 9
itervar numHosts 20
config description "Channel utilization in the function of packet generation frequency"
config repeat 2
config sim-time-limit 90min
config Aloha.numHosts 20
config Aloha.host[*].iaTime exponential(9s)
config network Aloha
config Aloha.numHosts 20
config Aloha.slotTime 0s
config Aloha.txRate 9.6kbps
config Aloha.host[*].pkLenBits 952b
config **.x "uniform(0m, 1000m)"
config **.y "uniform(0m, 1000m)"
config **.animationHoldTimeOnCollision 0s
config **.idleAnimationSpeed 1
config **.transmissionEdgeAnimationSpeed 1e-6
config **.midTransmissionAnimationSpeed 1e-1

vector 0 Aloha.server serverChannelState:vector ETV
attr enum IDLE=0,TRANSMISSION=1,COLLISION=2
attr recordingmode vector
attr source channelState
attr title "Channel state"
vector 1 Aloha.host[0] radioState:vector ETV
attr enum IDLE=0,TRANSMIT=1
attr recordingmode vector
attr source state
attr title "Radio state"
vector 2 Aloha.host[1] radioState:vector ETV
attr enum IDLE=0,TRANSMIT=1
attr recordingmode vector
attr source state
attr title "Radio state"
vector 3 Aloha.host[2] radioState:vector ETV
attr enum IDLE=0,TRANSMIT=1
attr recordingmode vector
attr source state
attr title "Radio state"
vector 4 Aloha.host[3] radioState:vector ETV
attr enum IDLE=0,TRANSMIT=1
attr recordingmode vector
attr source state
attr title "Radio state"
vector 5 Aloha.host[4] radioState:vector ETV
attr enum IDLE=0,TRANSMIT=1
attr recordingmode vector
attr source state
attr title "Radio state"
vector 6 Aloha.host[5] radioState:vector ETV
attr enum IDLE=0,TRANSMIT=1
attr recordingmode vector
attr source state
attr title "Radio state"
vector 7 Aloha.host[6] radioState:vector ETV
attr enum IDLE=0,TRANSMIT=1
attr recordingmode vector
attr source state
attr title "Radio state"
vector 8 Aloha.host[7] radioState:vector ETV
attr enum IDLE=0,TRANSMIT=1
attr recordingmode vector
attr source state
attr title "Radio state"
vector 9 Aloha.host[8] radioState:vector ETV
attr enum IDLE=0,TRANSMIT=1
attr recordingmode vector
attr source state
attr title "Radio state"
vector 10 Aloha.host[9] radioState:vector ETV
attr enum IDLE=0,TRANSMIT=1
attr recordingmode vector
attr source state
attr title "Radio state"
vector 11 Aloha.host[10] radioState:vector ETV
attr enum IDLE=0,TRANSMIT=1
attr recordingmode vector
attr source state
attr title "Radio state"
vector 12 Aloha.host[11] radioState:vector ETV
attr enum IDLE=0,TRANSMIT=1
attr recordingmode vector
attr source state
attr title "Radio state"
vector 13 Aloha.host[12] radioState:vector ETV
attr enum IDLE=0,TRANSMIT=1
attr recordingmode vector
attr source state
attr title "Radio state"
vector 14 Aloha.host[13] radioState:vector ETV
attr enum IDLE=0,TRANSMIT=1
attr recordingmode vector
attr source state
attr title "Radio state"
vector 15 Aloha.host[14] radioState:vector ETV
attr enum IDLE=0,TRANSMIT=1
attr recordingmode vector
attr source state
attr title "Radio state"
vector 16 Aloha.host[15] radioState:vector ETV
attr enum IDLE=0,TRANSMIT=1
attr recordingmode vector
attr source state
attr title "Radio state"
vector 17 Aloha.host[16] radioState:vector ETV
attr enum IDLE=0,TRANSMIT=1
attr recordingmode vector
attr source state
attr title "Radio state"
vector 18 Aloha.host[17] radioState:vector ETV
attr enum IDLE=0,TRANSMIT=1
attr recordingmode vector
attr source state
attr title "Radio state"
vector 19 Aloha.host[18] radioState:vector ETV
attr enum IDLE=0,TRANSMIT=1
attr recordingmode vector
attr source state
attr title "Radio state"
vector 20 Aloha.host[19] radioState:vector ETV
attr enum IDLE=0,TRANSMIT=1
attr recordingmode vector
attr source state
attr title "Radio state"
vector 21 Aloha.server channelUtilizationVector:vector ETV
attr interpolationmode linear
attr recordingmode vector
attr source timeavg(receive)
attr title "channel utilization evolution"
0	0	0	0
0	2	0.781773583139	1
0	4	0.880940249806	0
0	6	0.948559938878	1
0	8	1.045355131181	2
0	11	1.144521797848	0
0	13	1.775604366569	1
0	15	1.874771033236	0
0	17	2.095320767222	1
0	19	2.194487433889	0
0	21	2.378299983484	1
0	23	2.477466650151	0
0	25	2.539061023136	1
0	27	2.638227689803	0
0	29	3.543622601588	1
0	31	3.642789268255	0
0	33	4.201586497283	1
0	35	4.30075316395	0
0	37	4.506515846924	1
0	39	4.605682513591	0
0	41	4.65383595376	1
0	43	4.753002620427	0
0	45	4.929866670048	1
0	47	4.943864052459	2
0	50	5.043030719126	0
0	52	5.245159537695	1
0	54	5.344326204362	0
0	56	6.546312124653	1
0	58	6.64547879132	0
0	60	7.269819150184	1
0	62	7.368985816851	0
0	64	7.55205643957	1
0	66	7.651223106237	0
0	68	7.885111691882	1
0	70	7.984278358549	0
0	72	8.132741357868	1
0	74	8.231908024535	0
0	76	8.781878256242	1
0	78	8.881044922909	0
0	80	8.999224859638	1
0	82	9.098391526305	0
0	84	9.865337244223	1
0	86	9.96450391089	0
0	88	10.360414150521	1
0	90	10.459580817188	0
0	92	10.756338468546	1
0	94	10.761873613793	2
0	96	10.817223015209	2
0	100	10.916389681876	0
0	102	11.462830227089	1
0	104	11.561996893756	0
0	106	11.732697415748	1
0	108	11.801129398216	2
0	111	11.900296064883	0
0	113	12.062304819517	1
0	115	12.161471486184	0
0	117	12.170582701176	1
0	119	12.269749367843	0
0	121	12.608305487103	1
0	123	12.70747215377	0
0	125	13.216409284147	1
0	127	13.315575950814	0
0	129	14.084157334513	1
0	131	14.18332400118	0
0	133	14.391045704356	1
0	135	14.490212371023	0
0	137	14.89018444694	1
0	139	14.989351113607	0
0	141	15.429749472529	1
0	143	15.528916139196	0
0	145	15.799851074895	1
0	147	15.876643122895	2
0	150	15.975809789562	0
0	152	16.327918109881	1
0	154	16.4181277744	2
0	157	16.517294441067	0
0	159	16.603866063944	1
0	161	16.703032730611	0
0	163	18.486350681001	1
0	165	18.585517347668	0
0	167	18.668271700961	1
0	169	18.767438367628	0
0	171	18.995567764021	1
0	173	19.094734430688	0
0	175	19.241543670393	1
0	177	19.34071033706	0
0	179	20.603447186269	1
0	181	20.663033621386	2
0	184	20.719329181464	2
0	187	20.818495848131	0
0	189	21.143931449697	1
0	191	21.243098116364	0
0	193	21.54188867362	1
0	195	21.641055340287	0
0	197	22.394635563194	1
0	199	22.493802229861	0
0	201	22.678979489046	1
0	203	22.778146155713	0
0	205	22.943344913917	1
0	207	23.042511580584	0
0	209	23.170542256298	1
0	211	23.269708922965	0
0	213	23.586917142128	1
0	215	23.686083808795	0
0	217	23.691645505874	1
0	219	23.731481452814	2
0	222	23.830648119481	0
0	224	24.71510050296	1
0	226	24.814267169627	0
0	228	25.63066361243	1
0	230	25.729830279097	0
0	232	26.538705231665	1
0	234	26.637871898332	0
0	236	26.88758563724	1
0	238	26.986752303907	0
0	240	28.022619731566	1
0	242	28.121786398233	0
0	244	28.134372583119	1
0	246	28.233539249786	0
0	248	28.331661602158	1
0	250	28.430828268825	0
0	252	28.585033664248	1
0	254	28.684200330915	0
0	256	28.76271885478	1
0	258	28.861885521447	0
0	260	28.963237651644	1
0	262	29.062404318311	0
0	264	29.109123991417	1
0	266	29.208290658084	0
0	268	29.687665667385	1
0	270	29.786832334052	0
0	272	29.971365251723	1
0	274	30.053337299067	2
0	277	30.152503965734	0
0	279	30.505883936298	1
0	281	30.538245245816	2
0	284	30.637411912483	0
0	286	31.689452580725	1
0	288	31.788619247392	0
0	290	31.985427888604	1
0	292	32.084594555271	0
0	294	32.298076879536	1
0	296	32.397243546203	0
0	298	32.588277474895	1
0	300	32.687444141562	0
0	302	32.857756288285	1
0	304	32.956922954952	0
0	306	33.861433778617	1
0	308	33.960600445284	0
0	310	34.082964545797	1
0	312	34.182131212464	0
0	314	34.910442211547	1
0	316	34.914944998546	2
0	319	35.014111665213	0
0	321	35.200150195826	1
0	323	35.299316862493	0
0	325	35.554074950884	1
0	327	35.653241617551	0
0	329	35.887007650109	1
0	331	35.986174316776	0
0	333	36.255470646901	1
0	335	36.285252754137	2
0	338	36.384419420804	0
0	340	37.318110365921	1
0	342	37.417277032588	0
0	344	37.661015256541	1
0	346	37.680358343512	2
0	349	37.779525010179	0
0	351	38.128103943111	1
0	353	38.227270609778	0
0	355	38.364721179956	1
0	357	38.463887846623	0
0	359	39.467253213678	1
0	361	39.516800042701	2
0	364	39.615966709368	0
0	366	40.629702381216	1
0	368	40.728869047883	0
0	370	41.535622426378	1
0	372	41.634789093045	0
0	374	41.679064198519	1
0	376	41.778230865186	0
0	378	41.855665664961	1
0	380	41.954832331628	0
0	382	42.703102546041	1
0	384	42.802269212708	0
0	386	42.905167038813	1
0	388	43.00433370548	0
0	390	43.324960923391	1
0	392	43.423599220796	2
0	395	43.522765887463	0
0	397	44.007122327289	1
0	399	44.106288993956	0
0	401	44.36510165659	1
0	403	44.464268323257	0
0	405	44.883574329156	1
0	407	44.982740995823	0
0	409	45.970996411981	1
0	411	46.070163078648	0
0	413	46.3685490227	1
0	415	46.467715689367	0
0	417	47.641486501733	1
0	419	47.676276272204	2
0	422	47.775442938871	0
0	424	47.975998170377	1
0	426	48.075164837044	0
0	428	48.194321046311	1
0	430	48.293487712978	0
0	432	48.461316774288	1
0	434	48.560483440955	0
0	436	49.021854467546	1
0	438	49.121021134213	0
0	440	49.390785129254	1
0	442	49.489951795921	0
0	444	49.660038889845	1
0	446	49.759205556512	0
0	448	49.933682557082	1
0	450	50.032849223749	0
0	452	50.035237190832	1
0	454	50.134403857499	0
0	456	51.158346955791	1
0	458	51.257513622458	0
0	460	51.645524267766	1
0	462	51.744690934433	0
0	464	51.794143896812	1
0	466	51.811273478929	2
0	469	51.910440145596	0
0	471	51.962738586413	1
0	473	52.06190525308	0
0	475	53.081194131004	1
0	477	53.180360797671	0
0	479	53.762231692571	1
0	481	53.861398359238	0
0	483	53.917327850838	1
0	485	53.979795567642	2
0	488	54.078962234309	0
0	490	55.236843821616	1
0	492	55.304618956511	2
0	495	55.403785623178	0
0	497	56.072499854164	1
0	499	56.171666520831	0
0	501	56.220050563616	1
0	503	56.319217230283	0
0	505	56.394658297011	1
0	507	56.471283343537	2
0	510	56.570450010204	0
0	512	56.999846897116	1
0	514	57.099013563783	0
0	516	57.762641878115	1
0	518	57.861808544782	0
0	520	57.996353704364	1
0	522	58.011196350306	2
0	525	58.110363016973	0
0	527	58.327095732878	1
0	529	58.407878758186	2
0	532	58.507045424853	0
0	534	59.4830549515	1
0	536	59.582221618167	0
0	538	59.721132288588	1
0	540	59.820298955255	0
0	542	61.524099624228	1
0	544	61.623266290895	0
0	546	61.660888247772	1
0	548	61.666032250161	2
0	550	61.712419968271	2
0	554	61.782003930339	2
0	557	61.820235665235	2
0	559	61.86807534633	2
0	563	61.967242012997	0
0	565	62.12471302592	1
0	567	62.222031087528	2
0	570	62.321197754195	0
0	572	62.69365278224	1
0	574	62.792819448907	0
0	576	63.035140627783	1
0	578	63.13430729445	0
0	580	63.22366173641	1
0	582	63.322828403077	0
0	584	63.597552599446	1
0	586	63.696719266113	0
0	588	63.737206267289	1
0	590	63.836372933956	0
0	592	64.000032978416	1
0	594	64.099199645083	0
0	596	65.315136594939	1
0	598	65.408474682431	2
0	601	65.44291394539	2
0	604	65.542080612057	0
0	606	65.799737040086	1
0	608	65.898903706753	0
0	610	65.957806768481	1
0	612	66.056973435148	0
0	614	66.121852586824	1
0	616	66.221019253491	0
0	618	66.434397790831	1
0	620	66.533564457498	0
0	622	66.753024253714	1
0	624	66.852190920381	0
0	626	66.900006230248	1
0	628	66.999172896915	0
0	630	67.55429166031	1
0	632	67.653458326977	0
0	634	67.82956805817	1
0	636	67.928734724837	0
0	638	69.116105332983	1
0	640	69.195988699893	2
0	643	69.294483250031	2
0	646	69.393649916698	0
0	648	69.675290707393	1
0	650	69.77445737406	0
0	652	70.094897437719	1
0	654	70.194064104386	0
0	656	70.243509260839	1
0	658	70.342675927506	0
0	660	70.551336709741	1
0	662	70.650503376408	0
0	664	71.386693758307	1
0	666	71.485860424974	0
0	668	71.64359453403	1
0	670	71.66436580577	2
0	673	71.763532472437	0
0	675	72.368312880712	1
0	677	72.467479547379	0
0	679	72.683029886408	1
0	681	72.782196553075	0
0	683	73.329696816858	1
0	685	73.428863483525	0
0	687	73.470781437238	1
0	689	73.569948103905	0
0	691	73.578694022811	1
0	693	73.628037311185	2
0	695	73.657857516306	2
0	699	73.7562236256	2
0	702	73.855390292267	0
0	704	74.19225815998	1
0	706	74.286756956164	2
0	709	74.385923622831	0
0	711	74.463953588548	1
0	713	74.563120255215	0
0	715	74.678014024072	1
0	717	74.777180690739	0
0	719	74.795015499086	1
0	721	74.894182165753	0
0	723	75.139040560194	1
0	725	75.238207226861	0
0	727	75.72106515935	1
0	729	75.793938123705	2
0	732	75.893104790372	0
0	734	76.236191587209	1
0	736	76.335358253876	0
0	738	76.421622853836	1
0	740	76.520789520503	0
0	742	76.68118169959	1
0	744	76.780348366257	0
0	746	77.719579544101	1
0	748	77.818746210768	0
0	750	78.393805120726	1
0	752	78.457781168471	2
0	754	78.458965941852	2
0	758	78.558132608519	0
0	760	78.729541940156	1
0	762	78.828708606823	0
0	764	79.425661993059	1
0	766	79.524828659726	0
0	768	80.092409276323	1
0	770	80.19157594299	0
0	772	80.523287904409	1
0	774	80.538373844768	2
0	777	80.637540511435	0
0	779	80.898219530288	1
0	781	80.997386196955	0
0	783	81.180006480956	1
0	785	81.279173147623	0
0	787	81.693874761493	1
0	789	81.79304142816	0
0	791	82.739508725238	1
0	793	82.838675391905	0
0	795	83.441702309624	1
0	797	83.540868976291	0
0	799	85.88951660338	1
0	801	85.988683270047	0
0	803	86.121038208472	1
0	805	86.220204875139	0
0	807	86.278760203971	1
0	809	86.377926870638	0
0	811	87.548868494873	1
0	813	87.64803516154	0
0	815	87.767304204476	1
0	817	87.820322780524	2
0	820	87.919489447191	0
0	822	88.16068646179	1
0	824	88.181211791353	2
0	827	88.28037845802	0
0	829	89.263905254182	1
0	831	89.363071920849	0
0	833	89.410635175057	1
0	835	89.509801841724	0
0	837	90.857310116602	1
0	839	90.956476783269	0
0	841	91.099453807507	1
0	843	91.198620474174	0
0	845	91.499291800143	1
0	847	91.59845846681	0
0	849	92.140664304583	1
0	851	92.23983097125	0
0	853	92.445288467101	1
0	855	92.544455133768	0
0	857	92.735239731489	1
0	859	92.834406398156	0
0	861	93.344428765372	1
0	863	93.443595432039	0
0	865	93.770160429518	1
0	867	93.869327096185	0
0	869	94.012242144924	1
0	871	94.111408811591	0
0	873	94.719203346421	1
0	875	94.818370013088	0
0	877	95.285567420421	1
0	879	95.384734087088	0
0	881	95.673468616441	1
0	883	95.772635283108	0
0	885	95.81426263666	1
0	887	95.896382447438	2
0	890	95.995549114105	0
0	892	96.48005496346	1
0	894	96.579221630127	0
0	896	97.57002906373	1
0	898	97.669195730397	0
0	900	97.812678896779	1
0	902	97.911845563446	0
0	904	98.646018138488	1
0	906	98.716869211549	2
0	909	98.816035878216	0
0	911	99.546859524648	1
0	913	99.646026191315	0
0	915	99.705968408205	1
0	917	99.805135074872	0
0	919	100.100694669369	1
0	921	100.199861336036	0
0	923	101.123385108772	1
0	925	101.192511856605	2
0	928	101.291678523272	0
0	930	101.50860317901	1
0	932	101.607769845677	0
0	934	101.628767040076	1
0	936	101.727933706743	0
0	938	102.229677585003	1
0	940	102.32884425167	0
0	942	102.778824537642	1
0	944	102.877991204309	0
0	946	103.91259038678	1
0	948	104.011757053447	0
0	950	105.024639195115	1
0	952	105.123805861782	0
0	954	105.632659006342	1
0	956	105.731825673009	0
0	958	105.844207112171	1
0	960	105.943373778838	0
0	962	106.161400107753	1
0	964	106.26056677442	0
0	966	106.306646332244	1
0	968	106.405812998911	0
0	970	106.408873828425	1
0	972	106.508040495092	0
0	974	106.84247723999	1
0	976	106.941643906657	0
0	978	107.293910533818	1
0	980	107.371522473488	2
0	983	107.470689140155	0
0	985	107.51865002007	1
0	987	107.617816686737	0
0	989	109.497296267581	1
0	991	109.516605952384	2
0	994	109.615772619051	0
0	996	110.337042385483	1
0	998	110.368392232647	2
0	1001	110.446860529893	2
0	1004	110.54602719656	0
0	1006	110.948874890177	1
0	1008	111.048041556844	0
0	1010	111.051402513678	1
0	1012	111.150569180345	0
0	1014	111.185872086683	1
0	1016	111.28503875335	0
0	1018	112.092677658973	1
0	1020	112.19184432564	0
0	1022	112.203043661602	1
0	1024	112.302210328269	0
0	1026	112.452262284758	1
0	1028	112.551428951425	0
0	1030	113.271007890934	1
0	1032	113.370174557601	0
0	1034	113.40009279868	1
0	1036	113.499259465347	0
0	1038	113.727861290608	1
0	1040	113.827027957275	0
0	1042	114.037549391045	1
0	1044	114.136716057712	0
0	1046	115.082533134028	1
0	1048	115.181699800695	0
0	1050	115.856479545275	1
0	1052	115.955646211942	0
0	1054	116.120474224722	1
0	1056	116.219640891389	0
0	1058	116.366129502941	1
0	1060	116.465296169608	0
0	1062	116.8468671187	1
0	1064	116.946033785367	0
0	1066	117.483445729141	1
0	1068	117.582612395808	0
0	1070	117.774110605917	1
0	1072	117.873277272584	0
0	1074	118.175935794566	1
0	1076	118.275102461233	0
0	1078	118.288612810892	1
0	1080	118.387779477559	0
0	1082	119.306207386569	1
0	1084	119.405374053236	0
0	1086	120.662241797732	1
0	1088	120.761408464399	0
0	1090	121.305958135911	1
0	1092	121.405124802578	0
0	1094	122.087372540198	1
0	1096	122.186539206865	0
0	1098	122.283910629157	1
0	1100	122.383077295824	0
0	1102	122.466754286929	1
0	1104	122.565920953596	0
0	1106	122.673450457404	1
0	1108	122.747739302328	2
0	1111	122.846905968995	0
0	1113	123.01223233218	1
0	1115	123.059408893006	2
0	1118	123.158575559673	0
0	1120	123.336075003311	1
0	1122	123.435241669978	0
0	1124	123.673250434307	1
0	1126	123.714162386593	2
0	1129	123.81332905326	0
0	1131	124.918027725151	1
0	1133	125.017194391818	0
0	1135	125.019672735828	1
0	1137	125.118839402495	0
0	1139	125.248651366938	1
0	1141	125.347818033605	0
0	1143	125.872428088548	1
0	1145	125.971594755215	0
0	1147	126.165866582686	1
0	1149	126.265033249353	0
0	1151	126.553047787797	1
0	1153	126.652214454464	0
0	1155	127.147202539129	1
0	1157	127.246369205796	0
0	1159	127.854320644176	1
0	1161	127.891706170733	2
0	1164	127.9908728374	0
0	1166	128.661560148449	1
0	1168	128.760726815116	0
0	1170	128.894084960483	1
0	1172	128.99325162715	0
0	1174	129.450637915919	1
0	1176	129.549804582586	0
0	1178	130.29590553584	1
0	1180	130.395072202507	0
0	1182	131.02642790584	1
0	1184	131.125594572507	0
0	1186	131.37465572969	1
0	1188	131.473822396357	0
0	1190	132.449187382995	1
0	1192	132.548354049662	0
0	1194	132.764745487755	1
0	1196	132.863912154422	0
0	1198	133.158893055477	1
0	1200	133.253869641576	2
0	1203	133.353036308243	0
0	1205	133.506292228345	1
0	1207	133.605458895012	0
0	1209	133.895805060373	1
0	1211	133.99497172704	0
0	1213	134.094528261398	1
0	1215	134.193694928065	0
0	1217	134.466201170825	1
0	1219	134.565367837492	0
0	1221	134.847891421822	1
0	1223	134.90813094772	2
0	1226	135.007297614387	0
0	1228	135.517297701596	1
0	1230	135.616464368263	0
0	1232	135.806839698063	1
0	1234	135.898585949865	2
0	1237	135.94347557082	2
0	1240	136.042642237487	0
0	1242	136.17507291443	1
0	1244	136.274239581097	0
0	1246	136.28536138772	1
0	1248	136.384528054387	0
0	1250	136.612878578411	1
0	1252	136.712045245078	0
0	1254	137.15024040239	1
0	1256	137.249407069057	0
0	1258	137.499860990829	1
0	1260	137.599027657496	0
0	1262	137.702672746282	1
0	1264	137.801839412949	0
0	1266	138.847030850081	1
0	1268	138.946197516748	0
0	1270	139.476280368586	1
0	1272	139.575447035253	0
0	1274	139.751977778345	1
0	1276	139.851144445012	0
0	1278	140.503219813856	1
0	1280	140.602386480523	0
0	1282	140.854251979305	1
0	1284	140.953418645972	0
0	1286	141.675826100617	1
0	1288	141.774992767284	0
0	1290	142.144741727975	1
0	1292	142.243908394642	0
0	1294	142.813151583829	1
0	1296	142.912318250496	0
0	1298	143.887564005208	1
0	1300	143.986730671875	0
0	1302	145.623532767397	1
0	1304	145.722699434064	0
0	1306	146.294141782415	1
0	1308	146.393308449082	0
0	1310	146.659590945776	1
0	1312	146.758757612443	0
0	1314	148.185221058665	1
0	1316	148.284387725332	0
0	1318	148.860633028393	1
0	1320	148.95979969506	0
0	1322	149.003625559297	1
0	1324	149.102792225964	0
0	1326	149.80449203538	1
0	1328	149.903658702047	0
0	1330	150.239599143274	1
0	1332	150.338765809941	0
0	1334	150.372680273652	1
0	1336	150.471846940319	0
0	1338	152.512507324303	1
0	1340	152.529793068081	2
0	1343	152.628959734748	0
0	1345	152.840464391743	1
0	1347	152.93963105841	0
0	1349	152.99229379887	1
0	1351	153.074428202136	2
0	1354	153.173594868803	0
0	1356	153.702952550977	1
0	1358	153.802119217644	0
0	1360	154.280654621403	1
0	1362	154.37982128807	0
0	1364	154.48899894511	1
0	1366	154.588165611777	0
0	1368	154.995362531287	1
0	1370	155.094529197954	0
0	1372	155.455061224586	1
0	1374	155.554227891253	0
0	1376	156.125809595627	1
0	1378	156.224976262294	0
0	1380	157.275899309471	1
0	1382	157.375065976138	0
0	1384	157.631085848802	1
0	1386	157.719274925325	2
0	1389	157.747313094155	2
0	1392	157.846479760822	0
0	1394	158.319895718254	1
0	1396	158.419062384921	0
0	1398	160.523714929017	1
0	1400	160.579392489581	2
0	1403	160.64424732268	2
0	1406	160.743413989347	0
0	1408	161.374365462702	1
0	1410	161.473532129369	0
0	1412	162.210134476309	1
0	1414	162.309301142976	0
0	1416	162.562536134737	1
0	1418	162.637235154742	2
0	1421	162.672030077442	2
0	1424	162.771196744109	0
0	1426	162.884388964351	1
0	1428	162.983555631018	0
0	1430	163.319435238073	1
0	1432	163.41860190474	0
0	1434	163.911630395477	1
0	1436	164.010797062144	0
0	1438	164.217118809748	1
0	1440	164.22505152008	2
0	1443	164.324218186747	0
0	1445	165.095623353833	1
0	1447	165.1947900205	0
0	1449	166.478607349521	1
0	1451	166.577774016188	0
0	1453	166.740751619576	1
0	1455	166.839918286243	0
0	1457	166.852191476953	1
0	1459	166.95135814362	0
0	1461	169.352410459507	1
0	1463	169.451577126174	0
0	1465	169.639758476633	1
0	1467	169.7389251433	0
0	1469	169.796005007642	1
0	1471	169.895171674309	0
0	1473	170.57641036112	1
0	1475	170.675577027787	0
0	1477	171.02872004592	1
0	1479	171.127886712587	0
0	1481	171.395255811997	1
0	1483	171.494422478664	0
0	1485	173.13755311982	1
0	1487	173.236719786487	0
0	1489	173.412664234486	1
0	1491	173.468238837856	2
0	1494	173.567405504523	0
0	1496	173.799189810713	1
0	1498	173.89835647738	0
0	1500	174.523845326082	1
0	1502	174.548776142952	2
0	1505	174.647942809619	0
0	1507	174.703369030847	1
0	1509	174.802535697514	0
0	1511	175.390962423833	1
0	1513	175.4901290905	0
0	1515	175.592099497478	1
0	1517	175.691266164145	0
0	1519	175.701219195827	1
0	1521	175.800385862494	0
0	1523	176.27635673041	1
0	1525	176.375523397077	0
0	1527	176.669605994366	1
0	1529	176.768772661033	0
0	1531	177.050468827262	1
0	1533	177.084545542132	2
0	1536	177.183712208799	0
0	1538	177.212361970216	1
0	1540	177.311528636883	0
0	1542	177.488736323379	1
0	1544	177.587902990046	0
0	1546	177.707149150272	1
0	1548	177.806315816939	0
0	1550	177.887556124403	1
0	1552	177.98672279107	0
0	1554	178.808747282435	1
0	1556	178.849627904323	2
0	1559	178.94879457099	0
0	1561	179.193505336601	1
0	1563	179.292672003268	0
0	1565	179.951205906047	1
0	1567	180.050372572714	0
0	1569	181.08143977075	1
0	1571	181.180606437417	0
0	1573	181.721966501599	1
0	1575	181.821133168266	0
0	1577	182.931274030074	1
0	1579	183.030440696741	0
0	1581	184.163545616898	1
0	1583	184.262712283565	0
0	1585	184.380970498928	1
0	1587	184.480137165595	0
0	1589	185.784142980258	1
0	1591	185.883309646925	0
0	1593	186.710051396941	1
0	1595	186.802627223391	2
0	1598	186.901793890058	0
0	1600	188.066203732885	1
0	1602	188.165370399552	0
0	1604	189.207705421223	1
0	1606	189.30687208789	0
0	1608	189.311095430412	1
0	1610	189.410262097079	0
0	1612	189.573086678761	1
0	1614	189.672253345428	0
0	1616	189.782961402026	1
0	1618	189.882128068693	0
0	1620	190.366385626312	1
0	1622	190.465552292979	0
0	1624	191.341271867772	1
0	1626	191.387740460701	2
0	1629	191.481441133006	2
0	1632	191.580607799673	0
0	1634	192.967998399363	1
0	1636	193.06716506603	0
0	1638	194.252207449734	1
0	1640	194.351374116401	0
0	1642	194.402066510582	1
0	1644	194.501233177249	0
0	1646	194.699551726266	1
0	1648	194.798718392933	0
0	1650	194.984367524402	1
0	1652	195.083534191069	0
0	1654	195.220268118825	1
0	1656	195.319434785492	0
0	1658	195.677589823767	1
0	1660	195.776756490434	0
0	1662	196.327996952351	1
0	1664	196.364324387707	2
0	1667	196.463491054374	0
0	1669	197.268349112272	1
0	1671	197.367515778939	0
0	1673	197.948777037476	1
0	1675	197.984373028284	2
0	1678	198.083539694951	0
0	1680	198.484979276408	1
0	1682	198.584145943075	0
0	1684	198.937470794607	1
0	1686	199.036637461274	0
0	1688	199.197054351306	1
0	1690	199.277363222576	2
0	1693	199.376529889243	0
0	1695	199.41407436445	1
0	1697	199.513241031117	0
0	1699	200.052649465808	1
0	1701	200.151816132475	0
0	1703	201.173491770977	1
0	1705	201.272658437644	0
0	1707	201.637897153238	1
0	1709	201.737063819905	0
0	1711	201.862010303121	1
0	1713	201.961176969788	0
0	1715	202.293263674712	1
0	1717	202.392430341379	0
0	1719	202.64841668679	1
0	1721	202.727031522999	2
0	1724	202.826198189666	0
0	1726	202.890302028509	1
0	1728	202.989468695176	0
0	1730	203.983327464741	1
0	1732	204.082494131408	0
0	1734	204.216628810922	1
0	1736	204.315795477589	0
0	1738	204.508912946985	1
0	1740	204.538529718064	2
0	1743	204.637696384731	0
0	1745	204.876629429328	1
0	1747	204.943334020489	2
0	1750	205.042500687156	0
0	1752	206.609229808923	1
0	1754	206.70839647559	0
0	1756	207.02292446287	1
0	1758	207.122091129537	0
0	1760	207.131877728357	1
0	1762	207.231044395024	0
0	1764	207.380106109824	1
0	1766	207.479272776491	0
0	1768	207.839389170662	1
0	1770	207.938555837329	0
0	1772	208.023038921823	1
0	1774	208.12220558849	0
0	1776	208.64391023081	1
0	1778	208.743076897477	0
0	1780	209.803494628078	1
0	1782	209.902661294745	0
0	1784	209.945514654663	1
0	1786	210.04468132133	0
0	1788	210.424325646016	1
0	1790	210.523492312683	0
0	1792	210.636573558543	1
0	1794	210.73574022521	0
0	1796	211.496063241501	1
0	1798	211.595229908168	0
0	1800	211.817397174357	1
0	1802	211.841170745799	2
0	1804	211.903333561944	2
0	1808	212.002500228611	0
0	1810	212.390928582281	1
0	1812	212.490095248948	0
0	1814	213.009011514924	1
0	1816	213.108178181591	0
0	1818	213.221309538624	1
0	1820	213.320476205291	0
0	1822	213.433984389733	1
0	1824	213.5331510564	0
0	1826	213.945681364375	1
0	1828	214.044848031042	0
0	1830	214.058162216612	1
0	1832	214.157328883279	0
0	1834	214.687797095983	1
0	1836	214.78696376265	0
0	1838	214.95129954934	1
0	1840	215.050466216007	0
0	1842	215.442232644047	1
0	1844	215.541399310714	0
0	1846	215.873959687673	1
0	1848	215.899650850478	2
0	1850	215.901292474011	2
0	1854	216.000459140678	0
0	1856	216.004465454569	1
0	1858	216.103632121236	0
0	1860	216.364002143463	1
0	1862	216.400052475463	2
0	1865	216.49921914213	0
0	1867	216.933609849663	1
0	1869	217.03277651633	0
0	1871	217.49495297561	1
0	1873	217.594119642277	0
0	1875	218.3594644716	1
0	1877	218.458631138267	0
0	1879	218.625850276848	1
0	1881	218.725016943515	0
0	1883	219.238276092643	1
0	1885	219.33744275931	0
0	1887	220.102119652251	1
0	1889	220.201286318918	0
0	1891	220.628193643627	1
0	1893	220.727360310294	0
0	1895	222.247902042551	1
0	1897	222.283727944448	2
0	1900	222.353045383904	2
0	1903	222.452212050571	0
0	1905	225.157595043303	1
0	1907	225.25676170997	0
0	1909	225.551899840853	1
0	1911	225.585984447622	2
0	1914	225.685151114289	0
0	1916	225.894809758969	1
0	1918	225.993976425636	0
0	1920	226.247561336184	1
0	1922	226.346728002851	0
0	1924	226.424985245546	1
0	1926	226.524151912213	0
0	1928	227.232895006511	1
0	1930	227.332061673178	0
0	1932	228.263593711233	1
0	1934	228.3627603779	0
0	1936	228.429243757232	1
0	1938	228.528410423899	0
0	1940	228.566567011244	1
0	1942	228.665733677911	0
0	1944	229.182680844407	1
0	1946	229.281847511074	0
0	1948	229.956382352461	1
0	1950	230.055549019128	0
0	1952	232.029809548877	1
0	1954	232.128976215544	0
0	1956	232.685916274004	1
0	1958	232.785082940671	0
0	1960	233.006287277483	1
0	1962	233.045200244998	2
0	1964	233.055645505658	2
0	1968	233.154812172325	0
0	1970	233.942737116612	1
0	1972	234.041903783279	0
0	1974	234.490296912885	1
0	1976	234.541688914576	2
0	1979	234.640855581243	0
0	1981	234.716434423951	1
0	1983	234.815601090618	0
0	1985	234.866092803698	1
0	1987	234.965259470365	0
0	1989	235.59182190424	1
0	1991	235.621622255553	2
0	1994	235.72078892222	0
0	1996	235.827709853137	1
0	1998	235.857250842725	2
0	2001	235.956417509392	0
0	2003	236.460332473313	1
0	2005	236.55949913998	0
0	2007	236.597622380867	1
0	2009	236.696789047534	0
0	2011	237.037593673606	1
0	2013	237.053860684238	2
0	2016	237.153027350905	0
0	2018	237.409707498077	1
0	2020	237.508874164744	0
0	2022	237.870903374192	1
0	2024	237.970070040859	0
0	2026	237.972696688901	1
0	2028	238.071863355568	0
0	2030	238.294351470186	1
0	2032	238.33965324839	2
0	2035	238.438819915057	0
0	2037	239.13469684125	1
0	2039	239.233863507917	0
0	2041	240.934012105171	1
0	2043	240.972316291508	2
0	2046	241.071482958175	0
0	2048	241.20128459876	1
0	2050	241.300451265427	0
0	2052	242.281976383722	1
0	2054	242.381143050389	0
0	2056	243.6551806291	1
0	2058	243.732825889919	2
0	2061	243.831992556586	0
0	2063	244.553249996553	1
0	2065	244.65241666322	0
0	2067	245.507710597631	1
0	2069	245.606877264298	0
0	2071	245.967174341853	1
0	2073	246.06634100852	0
0	2075	246.665141329352	1
0	2077	246.764307996019	0
0	2079	246.862917740908	1
0	2081	246.962084407575	0
0	2083	247.023691068454	1
0	2085	247.122857735121	0
0	2087	247.135349614598	1
0	2089	247.234516281265	0
0	2091	247.553279024358	1
0	2093	247.652445691025	0
0	2095	248.222998927379	1
0	2097	248.283270784018	2
0	2100	248.382437450685	0
0	2102	248.63704074528	1
0	2104	248.736207411947	0
0	2106	248.79825347636	1
0	2108	248.840177553745	2
0	2111	248.939344220412	0
0	2113	249.215109297871	1
0	2115	249.27674309924	2
0	2118	249.375909765907	0
0	2120	249.493781136006	1
0	2122	249.592947802673	0
0	2124	250.066910264173	1
0	2126	250.16607693084	0
0	2128	250.218329854636	1
0	2130	250.317496521303	0
0	2132	250.499869161995	1
0	2134	250.599035828662	0
0	2136	250.834536286033	1
0	2138	250.9337029527	0
0	2140	251.289288088174	1
0	2142	251.388454754841	0
0	2144	251.602988676775	1
0	2146	251.702155343442	0
0	2148	251.905304812952	1
0	2150	251.969225329227	2
0	2153	252.068391995894	0
0	2155	252.190287085142	1
0	2157	252.289453751809	0
0	2159	252.592653097544	1
0	2161	252.691819764211	0
0	2163	252.820713597202	1