version 3
run PureAlohaExperiment-18-20260306-12:10:18-8840
attr configname PureAlohaExperiment
attr datetime 20260306-12:10:18
attr datetimef 20260306-121018
attr experiment PureAlohaExperiment
attr inifile omnetpp.ini
attr iterationvars "$numHosts=15, $iaMean=3"
attr iterationvarsd numHosts=15/iaMean=3
attr iterationvarsf numHosts=15,iaMean=3-
attr measurement "$numHosts=15, $iaMean=3"
attr network Aloha
attr processid 8840
attr repetition 0
attr replication #0
attr resultdir results
attr runnumber 18
attr seedset 18
itervar iaMean 3
itervar numHosts 15
config description "Channel utilization in the function of packet generation frequency"
config repeat 2
config sim-time-limit 90min
config Aloha.numHosts 15
config Aloha.host[*].iaTime exponential(3s)
config network Aloha
config Aloha.numHosts 20
config Aloha.slotTime 0s
config Aloha.txRate 9.6kbps
config Aloha.host[*].pkLenBits 952b
config **.x "uniform(0m, 1000m)"
config **.y "uniform(0m, 1000m)"
config **.animationHoldTimeOnCollision 0s
config **.idleAnimationSpeed 1
config **.transmissionEdgeAnimationSpeed 1e-6
config **.midTransmissionAnimationSpeed 1e-1

vector 0 Aloha.server serverChannelState:vector ETV
attr enum IDLE=0,TRANSMISSION=1,COLLISION=2
attr recordingmode vector
attr source channelState
attr title "Channel state"
vector 1 Aloha.host[0] radioState:vector ETV
attr enum IDLE=0,TRANSMIT=1
attr recordingmode vector
attr source state
attr title "Radio state"
vector 2 Aloha.host[1] radioState:vector ETV
attr enum IDLE=0,TRANSMIT=1
attr recordingmode vector
attr source state
attr title "Radio state"
vector 3 Aloha.host[2] radioState:vector ETV
attr enum IDLE=0,TRANSMIT=1
attr recordingmode vector
attr source state
attr title "Radio state"
vector 4 Aloha.host[3] radioState:vector ETV
attr enum IDLE=0,TRANSMIT=1
attr recordingmode vector
attr source state
attr title "Radio state"
vector 5 Aloha.host[4] radioState:vector ETV
attr enum IDLE=0,TRANSMIT=1
attr recordingmode vector
attr source state
attr title "Radio state"
vector 6 Aloha.host[5] radioState:vector ETV
attr enum IDLE=0,TRANSMIT=1
attr recordingmode vector
attr source state
attr title "Radio state"
vector 7 Aloha.host[6] radioState:vector ETV
attr enum IDLE=0,TRANSMIT=1
attr recordingmode vector
attr source state
attr title "Radio state"
vector 8 Aloha.host[7] radioState:vector ETV
attr enum IDLE=0,TRANSMIT=1
attr recordingmode vector
attr source state
attr title "Radio state"
vector 9 Aloha.host[8] radioState:vector ETV
attr enum IDLE=0,TRANSMIT=1
attr recordingmode vector
attr source state
attr title "Radio state"
vector 10 Aloha.host[9] radioState:vector ETV
attr enum IDLE=0,TRANSMIT=1
attr recordingmode vector
attr source state
attr title "Radio state"
vector 11 Aloha.host[10] radioState:vector ETV
attr enum IDLE=0,TRANSMIT=1
attr recordingmode vector
attr source state
attr title "Radio state"
vector 12 Aloha.host[11] radioState:vector ETV
attr enum IDLE=0,TRANSMIT=1
attr recordingmode vector
attr source state
attr title "Radio state"
vector 13 Aloha.host[12] radioState:vector ETV
attr enum IDLE=0,TRANSMIT=1
attr recordingmode vector
attr source state
attr title "Radio state"
vector 14 Aloha.host[13] radioState:vector ETV
attr enum IDLE=0,TRANSMIT=1
attr recordingmode vector
attr source state
attr title "Radio state"
vector 15 Aloha.host[14] radioState:vector ETV
attr enum IDLE=0,TRANSMIT=1
attr recordingmode vector
attr source state
attr title "Radio state"
vector 16 Aloha.server channelUtilizationVector:vector ETV
attr interpolationmode linear
attr recordingmode vector
attr source timeavg(receive)
attr title "channel utilization evolution"
0	0	0	0
0	2	0.664314259248	1
0	4	0.763480925915	0
0	6	1.007926265462	1
0	8	1.107092932129	0
0	10	1.303413002764	1
0	12	1.402579669431	0
0	14	1.494632826835	1
0	16	1.593799493502	0
0	18	1.766868950189	1
0	20	1.866035616856	0
0	22	2.208097647248	1
0	24	2.307264313915	0
0	26	2.325082875965	1
0	28	2.424249542632	0
0	30	2.429405738251	1
0	32	2.528572404918	0
0	34	2.919709035128	1
0	36	3.018875701795	0
0	38	3.211730237265	1
0	40	3.310896903932	0
0	42	3.484371849944	1
0	44	3.523877504527	2
0	47	3.608480289072	2
0	50	3.651390345563	2
0	53	3.75055701223	0
0	55	4.023050471538	1
0	57	4.122217138205	0
0	59	4.249494392856	1
0	61	4.348661059523	0
0	63	4.681381898316	1
0	65	4.772051595235	2
0	68	4.871218261902	0
0	70	4.906160009062	1
0	72	5.005326675729	0
0	74	5.04680032952	1
0	76	5.145966996187	0
0	78	5.392809114898	1
0	80	5.491975781565	0
0	82	5.711660111915	1
0	84	5.810826778582	0
0	86	5.823812472425	1
0	88	5.906182792284	2
0	91	5.93338978525	2
0	93	5.949475115092	2
0	97	6.048641781759	0
0	99	6.643731588501	1
0	101	6.742898255168	0
0	103	7.084775661402	1
0	105	7.183942328069	0
0	107	7.267484364134	1
0	109	7.366651030801	0
0	111	7.863939941372	1
0	113	7.963106608039	0
0	115	8.223288880482	1
0	117	8.322455547149	0
0	119	8.378278441015	1
0	121	8.411925299399	2
0	124	8.511091966066	0
0	126	8.566431850959	1
0	128	8.588563365717	2
0	131	8.687730032384	0
0	133	8.702826165325	1
0	135	8.801992831992	0
0	137	9.215910459312	1
0	139	9.315077125979	0
0	141	9.806626432953	1
0	143	9.834695148449	2
0	146	9.933861815116	0
0	148	10.247815873851	1
0	150	10.248694368791	2
0	153	10.347861035458	0
0	155	10.424820998717	1
0	157	10.523987665384	0
0	159	10.548490905305	1
0	161	10.565181707479	2
0	163	10.594307111942	2
0	165	10.620002098458	2
0	170	10.719168765125	0
0	172	10.845870525716	1
0	174	10.945037192383	0
0	176	11.027043959434	1
0	178	11.126210626101	0
0	180	11.640928204059	1
0	182	11.740094870726	0
0	184	11.839641175401	1
0	186	11.893213349151	2
0	188	11.930298717743	2
0	192	12.02946538441	0
0	194	12.078770681156	1
0	196	12.177937347823	0
0	198	12.20074887924	1
0	200	12.27165399601	2
0	203	12.354724125147	2
0	205	12.366664963972	2
0	209	12.465831630639	0
0	211	12.647994195712	1
0	213	12.725272620243	2
0	216	12.82443928691	0
0	218	12.933249853536	1
0	220	13.032416520203	0
0	222	13.034109416351	1
0	224	13.133276083018	0
0	226	13.203962612039	1
0	228	13.21504014191	2
0	231	13.314206808577	0
0	233	13.374460396427	1
0	235	13.473627063094	0
0	237	13.482253487014	1
0	239	13.485318913877	2
0	241	13.50686053443	2
0	243	13.553868524808	2
0	248	13.653035191475	0
0	250	14.168656000792	1
0	252	14.267822667459	0
0	254	14.274120471206	1
0	256	14.373287137873	0
0	258	14.491984803897	1
0	260	14.591151470564	0
0	262	14.815849483487	1
0	264	14.888146172582	2
0	267	14.987312839249	0
0	269	15.374943455561	1
0	271	15.443522224759	2
0	274	15.542688891426	0
0	276	15.855506099258	1
0	278	15.954672765925	0
0	280	16.188856778883	1
0	282	16.28802344555	0
0	284	16.548092370036	1
0	286	16.55711337588	2
0	289	16.656280042547	0
0	291	17.122048111561	1
0	293	17.221214778228	0
0	295	17.407766792393	1
0	297	17.50693345906	0
0	299	17.523567595786	1
0	301	17.622734262453	0
0	303	17.781040430853	1
0	305	17.88020709752	0
0	307	17.944091999217	1
0	309	17.961598484071	2
0	312	18.060765150738	0
0	314	18.194480728795	1
0	316	18.293647395462	0
0	318	18.496853443175	1
0	320	18.584136529852	2
0	323	18.683303196519	0
0	325	18.688087259142	1
0	327	18.753027990314	2
0	330	18.852194656981	0
0	332	19.250189607868	1
0	334	19.349356274535	0
0	336	19.590584902574	1
0	338	19.679732278137	2
0	341	19.778898944804	0
0	343	19.825308184817	1
0	345	19.924474851484	0
0	347	19.981369100056	1
0	349	19.98225265811	2
0	352	20.081419324777	0
0	354	20.189447865084	1
0	356	20.288614531751	0
0	358	20.458098015982	1
0	360	20.557264682649	0
0	362	21.214343531176	1
0	364	21.313510197843	0
0	366	21.352472035562	1
0	368	21.383115694655	2
0	371	21.482282361322	0
0	373	21.94018920227	1
0	375	22.039355868937	0
0	377	22.052306453646	1
0	379	22.151473120313	0
0	381	22.176316401652	1
0	383	22.275483068319	0
0	385	22.321666870214	1
0	387	22.420833536881	0
0	389	22.445842533015	1
0	391	22.545009199682	0
0	393	22.712759043704	1
0	395	22.811925710371	0
0	397	23.079337517631	1
0	399	23.157864765371	2
0	401	23.175666597293	2
0	405	23.27483326396	0
0	407	23.755402340417	1
0	409	23.854569007084	0
0	411	23.894402380116	1
0	413	23.96694863331	2
0	415	23.977823166095	2
0	419	24.076989832762	0
0	421	24.362808336721	1
0	423	24.461975003388	0
0	425	24.51275019263	1
0	427	24.611916859297	0
0	429	24.689777260721	1
0	431	24.747282207798	2
0	434	24.839640167828	2
0	437	24.938806834495	0
0	439	25.551023630543	1
0	441	25.65019029721	0
0	443	26.299229322679	1
0	445	26.398395989346	0
0	447	26.698800181106	1
0	449	26.797966847773	0
0	451	27.006425433653	1
0	453	27.10559210032	0
0	455	27.509943466065	1
0	457	27.609110132732	0
0	459	27.656996413042	1
0	461	27.679391199506	2
0	464	27.778557866173	0
0	466	27.991672495889	1
0	468	28.090839162556	0
0	470	28.315263899903	1
0	472	28.41443056657	0
0	474	28.558965657669	1
0	476	28.627706835008	2
0	479	28.726873501675	0
0	481	28.760794477373	1
0	483	28.85996114404	0
0	485	28.974087172385	1
0	487	29.073253839052	0
0	489	29.130348357397	1
0	491	29.207473109228	2
0	494	29.306639775895	0
0	496	29.572892995502	1
0	498	29.592146511044	2
0	500	29.626613478565	2
0	504	29.725780145232	0
0	506	29.744335393346	1
0	508	29.843502060013	0
0	510	29.989513622937	1
0	512	30.088680289604	0
0	514	30.233894308019	1
0	516	30.322590376967	2
0	519	30.421757043634	0
0	521	30.436791503952	1
0	523	30.490598758774	2
0	526	30.589765425441	0
0	528	30.687347828737	1
0	530	30.727153167446	2
0	533	30.826319834113	0
0	535	30.989452550504	1
0	537	31.088619217171	0
0	539	31.145831575541	1
0	541	31.192086904536	2
0	544	31.291253571203	0
0	546	31.315342528103	1
0	548	31.349802886233	2
0	551	31.445527891494	2
0	554	31.513892274482	2
0	557	31.599907658316	2
0	560	31.699074324983	0
0	562	32.25071886735	1
0	564	32.251998186882	2
0	566	32.252304937736	2
0	570	32.351471604403	0
0	572	32.473804849235	1
0	574	32.572971515902	0
0	576	32.905288363616	1
0	578	33.004455030283	0
0	580	34.10754195115	1
0	582	34.206708617817	0
0	584	34.598504423165	1
0	586	34.658092317551	2
0	589	34.757258984218	0
0	591	34.943397385651	1
0	593	35.042564052318	0
0	595	35.569635216074	1
0	597	35.575108179534	2
0	600	35.674274846201	0
0	602	35.765502111123	1
0	604	35.816013471432	2
0	607	35.915180138099	0
0	609	36.246251472124	1
0	611	36.286169943348	2
0	613	36.330770789954	2
0	617	36.429937456621	0
0	619	36.472143246845	1
0	621	36.520462788663	2
0	624	36.61962945533	0
0	626	36.636038959662	1
0	628	36.735205626329	0
0	630	36.850953395252	1
0	632	36.950120061919	0
0	634	37.052428055385	1
0	636	37.151594722052	0
0	638	37.824853338888	1
0	640	37.847189461321	2
0	643	37.946356127988	0
0	645	37.971237166825	1
0	647	37.99959316559	2
0	649	38.040162216121	2
0	653	38.139328882788	0
0	655	38.209308788963	1
0	657	38.27843483023	2
0	660	38.377601496897	0
0	662	39.217246394814	1
0	664	39.316413061481	0
0	666	39.342049783079	1
0	668	39.357259719722	2
0	671	39.456426386389	0
0	673	39.491578939063	1
0	675	39.509381707197	2
0	678	39.608548373864	0
0	680	39.609239632825	1
0	682	39.703015787847	2
0	685	39.802182454514	0
0	687	39.861490730029	1
0	689	39.960657396696	0
0	691	40.435430917929	1
0	693	40.534597584596	0
0	695	40.630816913172	1
0	697	40.649518293536	2
0	700	40.748684960203	0
0	702	40.770098454582	1
0	704	40.804075764849	2
0	707	40.903242431516	0
0	709	40.958235577892	1
0	711	41.057402244559	0
0	713	41.235389954132	1
0	715	41.334556620799	0
0	717	41.456951578477	1
0	719	41.556118245144	0
0	721	41.757142658368	1
0	723	41.856309325035	0
0	725	42.217456029121	1
0	727	42.244311286624	2
0	730	42.343477953291	0
0	732	42.449927136665	1
0	734	42.526842879043	2
0	737	42.62600954571	0
0	739	43.380041938567	1
0	741	43.420996077089	2
0	743	43.435603258419	2
0	745	43.459280907394	2
0	750	43.558447574061	0
0	752	44.010282780514	1
0	754	44.109449447181	0
0	756	44.234245021776	1
0	758	44.333411688443	0
0	760	45.06467506194	1
0	762	45.163841728607	0
0	764	45.173277724602	1
0	766	45.272444391269	0
0	768	45.370735254793	1
0	770	45.376417658324	2
0	773	45.475584324991	0
0	775	45.590589338646	1
0	777	45.689756005313	0
0	779	45.924598708486	1
0	781	46.023765375153	0
0	783	46.721757209461	1
0	785	46.735346501278	2
0	788	46.834513167945	0
0	790	46.953621648609	1
0	792	47.026267950904	2
0	795	47.125434617571	0
0	797	47.191107688645	1
0	799	47.290274355312	0
0	801	47.605994753258	1
0	803	47.705161419925	0
0	805	47.840477205394	1
0	807	47.88680202192	2
0	810	47.972883167406	2
0	813	48.072049834073	0
0	815	48.075322777072	1
0	817	48.109891233776	2
0	820	48.209057900443	0
0	822	48.414135467946	1
0	824	48.513302134613	0
0	826	48.608517466268	1
0	828	48.622668261349	2
0	831	48.721834928016	0
0	833	48.734977383475	1
0	835	48.834144050142	0
0	837	49.095970678428	1
0	839	49.144748954493	2
0	841	49.145899193577	2
0	843	49.158477083448	2
0	848	49.257643750115	0
0	850	49.351801528225	1
0	852	49.450968194892	0
0	854	49.487112807721	1
0	856	49.556444101518	2
0	859	49.591054987373	2
0	861	49.639243296508	2
0	864	49.667105315684	2
0	867	49.729036008471	2
0	871	49.810654467208	2
0	874	49.909821133875	0
0	876	50.113044012933	1
0	878	50.2122106796	0
0	880	50.311320571937	1
0	882	50.410487238604	0
0	884	50.923814459573	1
0	886	51.02298112624	0
0	888	51.714622616431	1
0	890	51.744271708089	2
0	893	51.843438374756	0
0	895	52.400982772823	1
0	897	52.471783903725	2
0	900	52.570950570392	0
0	902	53.232955720286	1
0	904	53.252747142972	2
0	906	53.266925817595	2
0	908	53.30004252233	2
0	912	53.354444643599	2
0	916	53.453611310266	0
0	918	53.63954020772	1
0	920	53.738706874387	0
0	922	54.134048867759	1
0	924	54.233215534426	0
0	926	54.502765875064	1
0	928	54.590944531753	2
0	931	54.646177032711	2
0	934	54.745343699378	0
0	936	54.80304163264	1
0	938	54.902208299307	0
0	940	55.051000524173	1
0	942	55.15016719084	0
0	944	55.266201031725	1
0	946	55.308309482565	2
0	949	55.407476149232	0
0	951	55.750016041506	1
0	953	55.849182708173	0
0	955	56.008279134059	1
0	957	56.107445800726	0
0	959	56.276851640154	1
0	961	56.376018306821	0
0	963	56.652260082898	1
0	965	56.751426749565	0
0	967	56.977694936945	1
0	969	57.076861603612	0
0	971	57.237111859406	1
0	973	57.336278526073	0
0	975	57.359509225976	1
0	977	57.427398661694	2
0	980	57.510767207576	2
0	982	57.520892198011	2
0	986	57.620058864678	0
0	988	57.889168553545	1
0	990	57.988335220212	0
0	992	58.185445450322	1
0	994	58.284612116989	0
0	996	58.632157865171	1
0	998	58.731324531838	0
0	1000	59.299082314277	1
0	1002	59.398248980944	0
0	1004	59.685264331453	1
0	1006	59.78443099812	0
0	1008	60.842471934013	1
0	1010	60.893584039894	2
0	1013	60.992750706561	0
0	1015	61.140874531032	1
0	1017	61.15126949319	2
0	1020	61.250436159857	0
0	1022	61.280333925253	1
0	1024	61.343729298653	2
0	1026	61.376483358887	2
0	1030	61.475650025554	0
0	1032	61.988177927253	1
0	1034	62.08734459392	0
0	1036	62.168800075547	1
0	1038	62.267966742214	0
0	1040	62.338681896351	1
0	1042	62.341471984509	2
0	1045	62.440638651176	0
0	1047	62.445824701185	1
0	1049	62.460377700663	2
0	1051	62.470880843274	2
0	1055	62.570047509941	0
0	1057	62.732915183041	1
0	1059	62.832081849708	0
0	1061	62.833709039238	1
0	1063	62.927269359462	2
0	1066	63.026436026129	0
0	1068	63.41507809449	1
0	1070	63.514244761157	0
0	1072	63.711410061892	1
0	1074	63.810576728559	0
0	1076	64.332084426054	1
0	1078	64.423383420081	2
0	1081	64.522550086748	0
0	1083	64.620327841404	1
0	1085	64.719494508071	0
0	1087	65.042145466886	1
0	1089	65.141312133553	0
0	1091	65.744139160129	1
0	1093	65.834473872069	2
0	1095	65.83758541792	2
0	1099	65.936752084587	0
0	1101	66.100512686227	1
0	1103	66.199679352894	0
0	1105	66.383197532598	1
0	1107	66.482364199265	0
0	1109	66.698726503889	1
0	1111	66.797893170556	0
0	1113	67.015265933695	1
0	1115	67.114432600362	0
0	1117	67.319355301414	1
0	1119	67.374385285675	2
0	1122	67.473551952342	0
0	1124	67.499997734796	1
0	1126	67.599164401463	0
0	1128	67.795455233095	1
0	1130	67.894621899762	0
0	1132	68.1272304803	1
0	1134	68.226397146967	0
0	1136	68.386816890049	1
0	1138	68.485983556716	0
0	1140	68.800143395247	1
0	1142	68.899310061914	0
0	1144	68.909652723833	1
0	1146	68.949117609642	2
0	1149	69.048284276309	0
0	1151	69.305796732345	1
0	1153	69.404963399012	0
0	1155	69.571427276097	1
0	1157	69.670593942764	0
0	1159	70.321672174779	1
0	1161	70.420838841446	0
0	1163	70.970120619836	1
0	1165	70.97369839953	2
0	1168	71.072865066197	0
0	1170	71.19472375959	1
0	1172	71.293890426257	0
0	1174	71.532058958143	1
0	1176	71.56274204401	2
0	1179	71.661908710677	0
0	1181	71.905645206715	1
0	1183	72.004811873382	0
0	1185	72.043517545572	1
0	1187	72.142684212239	0
0	1189	72.243044909989	1
0	1191	72.335735323016	2
0	1194	72.434901989683	0
0	1196	72.5145757659	1
0	1198	72.566152721694	2
0	1201	72.665319388361	0
0	1203	72.699513043331	1
0	1205	72.755250330288	2
0	1207	72.778892816329	2
0	1211	72.878059482996	0
0	1213	73.282653417944	1
0	1215	73.381820084611	0
0	1217	73.974227199036	1
0	1219	74.073393865703	0
0	1221	74.084327631233	1
0	1223	74.1834942979	0
0	1225	74.315611618411	1
0	1227	74.414778285078	0
0	1229	74.454393431414	1
0	1231	74.553560098081	0
0	1233	74.566984905747	1
0	1235	74.590362973647	2
0	1237	74.664700410755	2
0	1241	74.763867077422	0
0	1243	74.802310872032	1
0	1245	74.901477538699	0
0	1247	75.155634858926	1
0	1249	75.22674333404	2
0	1252	75.307865315142	2
0	1255	75.407031981809	0
0	1257	76.002764627186	1
0	1259	76.064107579786	2
0	1261	76.08650877903	2
0	1265	76.185675445697	0
0	1267	76.340883245834	1
0	1269	76.373312758116	2
0	1271	76.40101220408	2
0	1273	76.410105883409	2
0	1278	76.509272550076	0
0	1280	76.566756694228	1
0	1282	76.665923360895	0
0	1284	76.729161399373	1
0	1286	76.82832806604	0
0	1288	76.991414328647	1
0	1290	77.090580995314	0
0	1292	77.12335379855	1
0	1294	77.166866834188	2
0	1296	77.201085905	2
0	1300	77.300252571667	0
0	1302	77.325321341438	1
0	1304	77.424488008105	0
0	1306	77.86907167946	1
0	1308	77.968238346127	0
0	1310	77.976135142472	1
0	1312	78.075301809139	0
0	1314	78.224249655204	1
0	1316	78.323416321871	0
0	1318	78.32795276102	1
0	1320	78.401888073517	2
0	1323	78.501054740184	0
0	1325	78.52084982688	1
0	1327	78.596447748488	2
0	1330	78.692079737017	2
0	1333	78.791246403684	0
0	1335	78.8607620835	1
0	1337	78.959928750167	0
0	1339	79.001500406545	1
0	1341	79.100667073212	0
0	1343	79.521060436814	1
0	1345	79.620227103481	0
0	1347	79.835143409261	1
0	1349	79.934310075928	0
0	1351	80.175503549707	1
0	1353	80.274670216374	0
0	1355	80.776362151875	1
0	1357	80.875528818542	0
0	1359	81.098850125386	1
0	1361	81.198016792053	0
0	1363	81.25803222341	1
0	1365	81.357198890077	0
0	1367	81.948936033956	1
0	1369	82.048102700623	0
0	1371	82.065157073315	1
0	1373	82.164323739982	0
0	1375	82.182403827049	1
0	1377	82.281570493716	0
0	1379	82.497436239452	1
0	1381	82.596602906119	0
0	1383	82.843530037176	1
0	1385	82.942696703843	0
0	1387	82.949525067717	1
0	1389	83.005375085225	2
0	1392	83.104541751892	0
0	1394	83.637896242324	1
0	1396	83.647032075184	2
0	1399	83.746198741851	0
0	1401	83.934082852498	1
0	1403	84.033249519165	0
0	1405	84.137110263561	1
0	1407	84.236276930228	0
0	1409	84.382383754807	1
0	1411	84.481550421474	0
0	1413	84.534260145178	1
0	1415	84.633426811845	0
0	1417	84.791199483289	1
0	1419	84.890366149956	0
0	1421	85.016541129477	1
0	1423	85.115707796144	0
0	1425	85.254821234318	1
0	1427	85.353987900985	0
0	1429	85.39863242516	1
0	1431	85.497799091827	0
0	1433	85.561971616489	1
0	1435	85.661138283156	0
0	1437	85.888993256074	1
0	1439	85.893579620747	2
0	1441	85.913776242569	2
0	1445	85.998035447717	2
0	1448	86.079610709363	2
0	1451	86.107687445841	2
0	1454	86.206854112508	0
0	1456	86.223389835084	1
0	1458	86.275919964502	2
0	1461	86.375086631169	0
0	1463	86.517956880395	1
0	1465	86.611749794201	2
0	1468	86.636476662917	2
0	1471	86.735643329584	0
0	1473	86.940784374231	1
0	1475	87.039951040898	0
0	1477	87.310622391282	1
0	1479	87.409789057949	0
0	1481	87.544413359632	1
0	1483	87.560124919668	2
0	1485	87.610487952442	2
0	1489	87.709654619109	0
0	1491	88.035454530791	1
0	1493	88.077900736578	2
0	1496	88.177067403245	0
0	1498	88.234197840593	1
0	1500	88.303350927331	2
0	1503	88.402517593998	0
0	1505	88.554564444274	1
0	1507	88.649851986887	2
0	1510	88.749018653554	0
0	1512	89.148567834812	1
0	1514	89.17881644363	2
0	1516	89.206441931638	2
0	1520	89.288797447463	2
0	1523	89.38796411413	0
0	1525	89.869036923953	1
0	1527	89.96820359062	0
0	1529	90.050230704139	1
0	1531	90.149397370806	0
0	1533	90.170927878342	1
0	1535	90.270094545009	0
0	1537	90.327675119375	1
0	1539	90.41914272908	2
0	1542	90.518309395747	0
0	1544	90.545469961891	1
0	1546	90.547176663606	2
0	1548	90.557826161327	2
0	1552	90.656992827994	0
0	1554	90.804348646654	1
0	1556	90.874822085119	2
0	1559	90.973988751786	0
0	1561	91.03109940693	1
0	1563	91.105895019849	2
0	1566	91.205061686516	0
0	1568	91.329889995894	1
0	1570	91.38876038838	2
0	1573	91.464833330151	2
0	1576	91.563999996818	0
0	1578	92.054982832304	1
0	1580	92.154149498971	0
0	1582	92.353869769534	1
0	1584	92.453036436201	0
0	1586	92.507161085378	1
0	1588	92.606327752045	0
0	1590	93.141049854502	1
0	1592	93.180329341504	2
0	1594	93.198374239851	2
0	1596	93.213875417322	2
0	1601	93.313042083989	0
0	1603	93.340910733862	1
0	1605	93.440077400529	0
0	1607	93.535777849013	1
0	1609	93.568541913285	2
0	1611	93.610927105157	2
0	1615	93.710093771824	0
0	1617	94.092219110845	1
0	1619	94.191385777512	0
0	1621	94.767174897595	1
0	1623	94.866341564262	0
0	1625	94.938034521152	1
0	1627	94.996881143594	2
0	1630	95.096047810261	0
0	1632	95.188941405145	1
0	1634	95.288108071812	0
0	1636	95.34915460723	1
0	1638	95.448321273897	0
0	1640	95.708812705006	1
0	1642	95.807979371673	0
0	1644	95.842624142754	1
0	1646	95.900778561813	2
0	1649	95.99994522848	0
0	1651	96.392115601861	1
0	1653	96.491282268528	0
0	1655	96.494831255018	1
0	1657	96.533959063209	2
0	1660	96.633125729876	0
0	1662	96.734355632426	1
0	1664	96.833522299093	0
0	1666	96.874683883341	1
0	1668	96.918897965533	2
0	1671	97.0180646322	0
0	1673	97.039095584505	1
0	1675	97.138262251172	0
0	1677	97.227267254471	1
0	1679	97.308493937785	2
0	1682	97.407660604452	0
0	1684	97.526400420305	1
0	1686	97.625567086972	0
0	1688	97.755863740912	1
0	1690	97.855030407579	0
0	1692	97.861857370508	1
0	1694	97.961024037175	0
0	1696	98.056000552662	1
0	1698	98.073174388655	2
0	1701	98.172341055322	0
0	1703	98.290309839394	1
0	1705	98.389476506061	0
0	1707	98.547157050641	1
0	1709	98.646323717308	0
0	1711	98.964871239508	1
0	1713	99.064037906175	0
0	1715	99.260220068494	1
0	1717	99.295394645774	2
0	1720	99.394561312441	0
0	1722	99.441511645553	1
0	1724	99.54067831222	0
0	1726	100.1945718771	1
0	1728	100.195325916645	2
0	1731	100.294492583312	0
0	1733	100.504122394579	1
0	1735	100.603289061246	0
0	1737	100.678166157594	1
0	1739	100.777332824261	0
0	1741	100.997403945034	1
0	1743	101.096570611701	0
0	1745	101.206990278907	1
0	1747	101.306156945574	0
0	1749	101.332813648853	1
0	1751	101.378745515599	2
0	1754	101.472861699004	2
0	1757	101.539483919312	2
0	1760	101.638650585979	0
0	1762	101.856747246244	1
0	1764	101.955913912911	0
0	1766	101.969532580861	1
0	1768	102.068699247528	0
0	1770	102.236097889145	1
0	1772	102.265933764108	2
0	1775	102.365100430775	0
0	1777	102.632699021628	1
0	1779	102.731865688295	0
0	1781	102.892138761796	1
0	1783	102.991305428463	0
0	1785	103.709051019093	1
0	1787	103.80821768576	0
0	1789	103.900456842081	1
0	1791	103.903953339159	2
0	1793	103.998653090551	2
0	1797	104.023048411199	2
0	1799	104.080459380738	2
0	1803	104.179626047405	0
0	1805	104.246953810557	1
0	1807	104.317041703075	2
0	1810	104.416208369742	0
0	1812	104.494516574833	1
0	1814	104.5936832415	0
0	1816	105.222788851397	1
0	1818	105.321955518064	0
0	1820	105.356004537035	1
0	1822	105.455171203702	0
0	1824	105.488118841599	1
0	1826	105.587285508266	0
0	1828	105.606668304919	1
0	1830	105.705834971586	0
0	1832	106.10353426003	1
0	1834	106.17025592539	2
0	1836	106.179989943272	2
0	1840	106.279156609939	0
0	1842	106.341412915053	1
0	1844	106.414167817933	2
0	1847	106.482032389348	2
0	1850	106.556540443159	2
0	1852	106.563880987559	2
0	1856	106.663047654226	0
0	1858	106.991586549732	1
0	1860	107.056467598543	2
0	1863	107.15563426521	0
0	1865	107.364909323544	1
0	1867	107.464075990211	0
0	1869	107.591429818081	1
0	1871	107.645192994878	2
0	1873	107.686485364376	2
0	1877	107.785652031043	0
0	1879	108.224824105822	1
0	1881	108.323990772489	0
0	1883	108.440699834989	1
0	1885	108.481109437384	2
0	1888	108.580276104051	0
0	1890	108.737209770877	1
0	1892	108.836376437544	0
0	1894	108.941956638363	1
0	1896	108.949134791619	2
0	1899	109.048301458286	0
0	1901	109.124646435514	1
0	1903	109.223813102181	0
0	1905	109.380611021422	1
0	1907	109.479777688089	0
0	1909	109.707612723682	1
0	1911	109.806779390349	0
0	1913	109.846140035401	1
0	1915	109.945306702068	0
0	1917	109.962414049153	1
0	1919	110.06158071582	0
0	1921	110.171828957022	1
0	1923	110.18820165092	2
0	1925	110.245659087456	2
0	1929	110.344825754123	0
0	1931	110.361654448314	1
0	1933	110.460821114981	0
0	1935	110.810293847947	1
0	1937	110.909460514614	0
0	1939	110.936653549112	1
0	1941	111.035820215779	0
0	1943	111.566483329142	1
0	1945	111.665649995809	0
0	1947	111.760697005737	1
0	1949	111.859863672404	0
0	1951	112.237830381032	1
0	1953	112.336997047699	0
0	1955	112.591553084012	1
0	1957	112.690719750679	0
0	1959	112.86217601115	1
0	1961	112.908010266474	2
0	1963	112.911200359885	2
0	1965	112.922238490324	2
0	1970	113.021405156991	0
0	1972	113.25275260575	1
0	1974	113.339808721622	2
0	1977	113.388560136514	2
0	1980	113.487726803181	0
0	1982	113.496260833154	1
0	1984	113.595427499821	0
0	1986	113.611874017893	1
0	1988	113.71104068456	0
0	1990	113.772192752433	1
0	1992	113.8713594191	0
0	1994	113.924753090697	1
0	1996	114.023919757364	0
0	1998	114.510929640898	1
0	2000	114.610096307565	0
0	2002	114.699686403707	1
0	2004	114.798853070374	0
0	2006	114.859012139607	1
0	2008	114.958178806274	0
0	2010	115.174027275081	1
0	2012	115.22356052767	2
0	2014	115.261805141502	2
0	2018	115.360971808169	0
0	2020	115.4458333465	1
0	2022	115.545000013167	0
0	2024	115.604437903426	1
0	2026	115.703604570093	0
0	2028	115.736011381258	1
0	2030	115.780500398801	2
0	2033	115.879667065468	0
0	2035	116.240573172483	1
0	2037	116.33973983915	0
0	2039	116.600425602436	1
0	2041	116.623562566936	2
0	2043	116.68320810461	2
0	2047	116.782374771277	0
0	2049	117.230441878404	1
0	2051	117.322086625241	2
0	2054	117.33773655999	2
0	2056	117.405748831179	2
0	2058	117.418183382033	2
0	2063	117.509908821033	2
0	2066	117.6090754877	0
0	2068	117.917308639108	1
0	2070	118.010236249646	2
0	2073	118.109402916313	0
0	2075	118.112412732574	1
0	2077	118.138727091824	2
0	2079	118.198888967173	2
0	2083	118.29805563384	0
0	2085	118.477675597545	1
0	2087	118.576842264212	0
0	2089	119.063834447641	1
0	2091	119.163001114308	0
0	2093	119.208979965161	1
0	2095	119.308146631828	0
0	2097	119.359392092312	1
0	2099	119.441947880345	2
0	2102	119.541114547012	0
0	2104	120.045436243542	1
0	2106	120.123676597502	2
0	2109	120.222843264169	0
0	2111	120.258661596621	1
0	2113	120.357828263288	0
0	2115	120.567143810978	1
0	2117	120.623258407162	2
0	2119	120.663872629692	2
0	2123	120.748751911394	2
0	2126	120.847918578061	0
0	2128	121.383039476392	1
0	2130	121.482206143059	0
0	2132	121.818215632846	1
0	2134	121.868776150796	2
0	2137	121.941715350967	2
0	2140	122.040882017634	0
0	2142	122.282599380507	1
0	2144	122.381766047174	0
0	2146	122.490046393476	1
0	2148	122.589213060143	0
0	2150	122.720561887302	1
0	2152	122.819728553969	0
0	2154	123.162208395155	1
0	2156	123.191364757269	2
0	2158	123.202785713666	2
0	2162	123.301952380333	0
0	2164	123.805914116594	1
0	2166	123.905080783261	0
0	2168	123.946153117533	1
0	2170	124.034512511399	2
0	2173	124.133679178066	0
0	2175	124.377703913092	1
0	2177	124.476870579759	0
0	2179	124.547832078282	1
0	2181	124.624498456491	2
0	2184	124.723665123158	0
0	2186	124.873216343989	1
0	2188	124.893427148553	2
0	2191	124.99259381522	0
0	2193	125.111609710844	1
0	2195	125.210776377511	0
0	2197	125.286136648602	1
0	2199	125.362834214002	2
0	2202	125.457848535465	2
0	2205	125.557015202132	0
0	2207	126.086929410192	1
0	2209	126.186096076859	0
0	2211	126.34364523798	1
0	2213	126.380808085862	2
0	2216	126.479974752529	0
0	2218	126.505461107841	1
0	2220	126.604627774508	0
0	2222	126.777754004584	1
0	2224	126.876920671251	0
0	2226	127.170528333061	1
0	2228	127.269694999728	0
0	2230	127.298503671758	1
0	2232	127.397670338425	0
0	2234	127.529423010042	1
0	2236	127.628589676709	0
0	2238	127.852694330276	1
0	2240	127.951860996943	0
0	2242	128.306351922387	1
0	2244	128.340684191416	2
0	2246	128.399929301786	2
0	2250	128.499095968453	0
0	2252	128.597896665586	1
0	2254	128.650487625047	2
0	2256	128.667344364384	2
0	2260	128.766511031051	0
0	2262	128.899893370896	1
0	2264	128.977134493989	2
0	2266	128.991560423347	2
0	2270	129.090727090014	0
0	2272	129.124182102797	1
0	2274	129.223348769464	0
0	2276	129.895606342399	1
0	2278	129.994773009066	0
0	2280	130.020586075787	1
0	2282	130.06212233711	2
0	2284	130.10859472441	2
0	2287	130.120255290601	2
0	2291	130.208940038796	2
0	2294	130.308106705463	0
0	2296	130.461106712925	1
0	2298	130.480172650268	2
0	2301	130.579339316935	0
0	2303	130.761031519673	1
0	2305	130.86019818634	0
0	2307	130.946526149479	1
0	2309	131.045692816146	0
0	2311	131.2549320741	1
0	2313	131.287072508368	2
0	2316	131.386239175035	0
0	2318	131.521431848939	1
0	2320	131.620598515606	0
0	2322	131.913324981074	1
0	2324	132.012491647741	0
0	2326	132.095264192737	1
0	2328	132.146382860799	2
0	2331	132.245549527466	0
0	2333	132.843153098593	1
0	2335	132.94231976526	0
0	2337	132.982532355231	1
0	2339	133.081699021898	0
0	2341	133.401309874193	1
0	2343	133.50047654086	0
0	2345	133.521822756499	1
0	2347	133.613346213045	2
0	2350	133.712512879712	0
0	2352	133.815755099255	1
0	2354	133.867882336622	2
0	2357	133.967049003289	0
0	2359	134.006975130971	1
0	2361	134.054692740667	2
0	2364	134.153859407334	0
0	2366	134.384244010973	1
0	2368	134.423799229823	2
0	2371	134.519529120426	2
0	2374	134.618695787093	0
0	2376	134.753685853482	1
0	2378	134.852852520149	0
0	2380	135.681274822254	1
0	2382	135.70075279131	2
0	2384	135.703639484193	2