version 3
run PureAlohaExperiment-39-20260306-12:10:23-8840
attr configname PureAlohaExperiment
attr datetime 20260306-12:10:23
attr datetimef 20260306-121023
attr experiment PureAlohaExperiment
attr inifile omnetpp.ini
attr iterationvars "$numHosts=20, $iaMean=7"
attr iterationvarsd numHosts=20/iaMean=7
attr iterationvarsf numHosts=20,iaMean=7-
attr measurement "$numHosts=20, $iaMean=7"
attr network Aloha
attr processid 8840
attr repetition 1
attr replication #1
attr resultdir results
attr runnumber 39
attr seedset 39
itervar iaMean 7
itervar numHosts 20
config description "Channel utilization in the function of packet generation frequency"
config repeat 2
config sim-time-limit 90min
config Aloha.numHosts 20
config Aloha.host[*].iaTime exponential(7s)
config network Aloha
config Aloha.numHosts 20
config Aloha.slotTime 0s
config Aloha.txRate 9.6kbps
config Aloha.host[*].pkLenBits 952b
config **.x "uniform(0m, 1000m)"
config **.y "uniform(0m, 1000m)"
config **.animationHoldTimeOnCollision 0s
config **.idleAnimationSpeed 1
config **.transmissionEdgeAnimationSpeed 1e-6
config **.midTransmissionAnimationSpeed 1e-1

vector 0 Aloha.server serverChannelState:vector ETV
attr enum IDLE=0,TRANSMISSION=1,COLLISION=2
attr recordingmode vector
attr source channelState
attr title "Channel state"
vector 1 Aloha.host[0] radioState:vector ETV
attr enum IDLE=0,TRANSMIT=1
attr recordingmode vector
attr source state
attr title "Radio state"
vector 2 Aloha.host[1] radioState:vector ETV
attr enum IDLE=0,TRANSMIT=1
attr recordingmode vector
attr source state
attr title "Radio state"
vector 3 Aloha.host[2] radioState:vector ETV
attr enum IDLE=0,TRANSMIT=1
attr recordingmode vector
attr source state
attr title "Radio state"
vector 4 Aloha.host[3] radioState:vector ETV
attr enum IDLE=0,TRANSMIT=1
attr recordingmode vector
attr source state
attr title "Radio state"
vector 5 Aloha.host[4] radioState:vector ETV
attr enum IDLE=0,TRANSMIT=1
attr recordingmode vector
attr source state
attr title "Radio state"
vector 6 Aloha.host[5] radioState:vector ETV
attr enum IDLE=0,TRANSMIT=1
attr recordingmode vector
attr source state
attr title "Radio state"
vector 7 Aloha.host[6] radioState:vector ETV
attr enum IDLE=0,TRANSMIT=1
attr recordingmode vector
attr source state
attr title "Radio state"
vector 8 Aloha.host[7] radioState:vector ETV
attr enum IDLE=0,TRANSMIT=1
attr recordingmode vector
attr source state
attr title "Radio state"
vector 9 Aloha.host[8] radioState:vector ETV
attr enum IDLE=0,TRANSMIT=1
attr recordingmode vector
attr source state
attr title "Radio state"
vector 10 Aloha.host[9] radioState:vector ETV
attr enum IDLE=0,TRANSMIT=1
attr recordingmode vector
attr source state
attr title "Radio state"
vector 11 Aloha.host[10] radioState:vector ETV
attr enum IDLE=0,TRANSMIT=1
attr recordingmode vector
attr source state
attr title "Radio state"
vector 12 Aloha.host[11] radioState:vector ETV
attr enum IDLE=0,TRANSMIT=1
attr recordingmode vector
attr source state
attr title "Radio state"
vector 13 Aloha.host[12] radioState:vector ETV
attr enum IDLE=0,TRANSMIT=1
attr recordingmode vector
attr source state
attr title "Radio state"
vector 14 Aloha.host[13] radioState:vector ETV
attr enum IDLE=0,TRANSMIT=1
attr recordingmode vector
attr source state
attr title "Radio state"
vector 15 Aloha.host[14] radioState:vector ETV
attr enum IDLE=0,TRANSMIT=1
attr recordingmode vector
attr source state
attr title "Radio state"
vector 16 Aloha.host[15] radioState:vector ETV
attr enum IDLE=0,TRANSMIT=1
attr recordingmode vector
attr source state
attr title "Radio state"
vector 17 Aloha.host[16] radioState:vector ETV
attr enum IDLE=0,TRANSMIT=1
attr recordingmode vector
attr source state
attr title "Radio state"
vector 18 Aloha.host[17] radioState:vector ETV
attr enum IDLE=0,TRANSMIT=1
attr recordingmode vector
attr source state
attr title "Radio state"
vector 19 Aloha.host[18] radioState:vector ETV
attr enum IDLE=0,TRANSMIT=1
attr recordingmode vector
attr source state
attr title "Radio state"
vector 20 Aloha.host[19] radioState:vector ETV
attr enum IDLE=0,TRANSMIT=1
attr recordingmode vector
attr source state
attr title "Radio state"
vector 21 Aloha.server channelUtilizationVector:vector ETV
attr interpolationmode linear
attr recordingmode vector
attr source timeavg(receive)
attr title "channel utilization evolution"
0	0	0	0
0	2	0.790839788965	1
0	4	0.890006455632	0
0	6	1.126720032716	1
0	8	1.196732463184	2
0	11	1.295899129851	0
0	13	1.45431493159	1
0	15	1.553481598257	0
0	17	1.951540662575	1
0	19	2.050707329242	0
0	21	2.456575744814	1
0	23	2.486651881746	2
0	26	2.585818548413	0
0	28	2.658330420882	1
0	30	2.757497087549	0
0	32	2.774254952877	1
0	34	2.873421619544	0
0	36	3.108366232387	1
0	38	3.207532899054	0
0	40	4.298258972116	1
0	42	4.397425638783	0
0	44	4.650648005778	1
0	46	4.710559775302	2
0	49	4.809726441969	0
0	51	5.227347376897	1
0	53	5.326514043564	0
0	55	5.635780278594	1
0	57	5.734946945261	0
0	59	5.83050737497	1
0	61	5.929674041637	0
0	63	6.457768052311	1
0	65	6.4601300709	2
0	68	6.559296737567	0
0	70	7.654139366962	1
0	72	7.753306033629	0
0	74	7.770129138538	1
0	76	7.869295805205	0
0	78	8.066605850418	1
0	80	8.165772517085	0
0	82	8.246831279292	1
0	84	8.264702955678	2
0	86	8.27699609224	2
0	90	8.376162758907	0
0	92	8.574847015402	1
0	94	8.674013682069	0
0	96	8.916115360009	1
0	98	9.015282026676	0
0	100	9.935088236876	1
0	102	10.034254903543	0
0	104	10.273508815812	1
0	106	10.372675482479	0
0	108	10.875623775945	1
0	110	10.974790442612	0
0	112	11.750703453583	1
0	114	11.84987012025	0
0	116	12.186706407489	1
0	118	12.285873074156	0
0	120	12.696999343535	1
0	122	12.709108008593	2
0	124	12.781452207697	2
0	128	12.880618874364	0
0	130	13.017671241041	1
0	132	13.092010019309	2
0	135	13.174286071479	2
0	138	13.273452738146	0
0	140	13.393864126901	1
0	142	13.493030793568	0
0	144	13.50743478514	1
0	146	13.606601451807	0
0	148	14.037294720429	1
0	150	14.136461387096	0
0	152	14.172921760969	1
0	154	14.272088427636	0
0	156	14.609577211802	1
0	158	14.708743878469	0
0	160	14.770771569705	1
0	162	14.777680997523	2
0	165	14.87684766419	0
0	167	15.28571384266	1
0	169	15.384880509327	0
0	171	15.422755656577	1
0	173	15.521922323244	0
0	175	15.706992643121	1
0	177	15.806159309788	0
0	179	16.461736721838	1
0	181	16.560903388505	0
0	183	16.772416192988	1
0	185	16.871582859655	0
0	187	17.15721900802	1
0	189	17.256385674687	0
0	191	17.449460610439	1
0	193	17.498117735813	2
0	196	17.59728440248	0
0	198	17.608577642669	1
0	200	17.707744309336	0
0	202	18.231586239405	1
0	204	18.310305072056	2
0	207	18.409471738723	0
0	209	18.596302345751	1
0	211	18.695469012418	0
0	213	19.220041945764	1
0	215	19.280923823592	2
0	218	19.380090490259	0
0	220	19.485287370638	1
0	222	19.580426655971	2
0	225	19.679593322638	0
0	227	19.736913371147	1
0	229	19.836080037814	0
0	231	19.851048654443	1
0	233	19.95021532111	0
0	235	20.53786675548	1
0	237	20.544962241202	2
0	240	20.644128907869	0
0	242	20.919711388503	1
0	244	21.01887805517	0
0	246	21.114992932854	1
0	248	21.204575561066	2
0	251	21.303742227733	0
0	253	21.411031102085	1
0	255	21.510197768752	0
0	257	21.510460677862	1
0	259	21.609627344529	0
0	261	21.829324660081	1
0	263	21.928491326748	0
0	265	23.257274234311	1
0	267	23.268028248314	2
0	269	23.329983397797	2
0	271	23.347685998363	2
0	276	23.44685266503	0
0	278	23.542602713271	1
0	280	23.560244487121	2
0	282	23.633031327192	2
0	286	23.732197993859	0
0	288	24.076677225032	1
0	290	24.120923538371	2
0	293	24.220090205038	0
0	295	24.285934569402	1
0	297	24.385101236069	0
0	299	24.57245794019	1
0	301	24.671624606857	0
0	303	24.789717854469	1
0	305	24.888884521136	0
0	307	25.038135432376	1
0	309	25.137302099043	0
0	311	25.988703011222	1
0	313	26.085922814311	2
0	316	26.185089480978	0
0	318	26.337855231046	1
0	320	26.437021897713	0
0	322	26.704189327572	1
0	324	26.803355994239	0
0	326	26.900764665648	1
0	328	26.999931332315	0
0	330	27.152815673755	1
0	332	27.226734314286	2
0	335	27.325900980953	0
0	337	28.123015888118	1
0	339	28.222182554785	0
0	341	28.57947650195	1
0	343	28.678643168617	0
0	345	28.846074049823	1
0	347	28.94524071649	0
0	349	29.093696661098	1
0	351	29.192863327765	0
0	353	29.587356395983	1
0	355	29.68652306265	0
0	357	30.066302920633	1
0	359	30.1654695873	0
0	361	30.353043485278	1
0	363	30.452210151945	0
0	365	30.796924097461	1
0	367	30.896090764128	0
0	369	31.290901863647	1
0	371	31.390068530314	0
0	373	32.521170915908	1
0	375	32.620337582575	0
0	377	32.932010369225	1
0	379	33.031177035892	0
0	381	33.816874149417	1
0	383	33.823854287639	2
0	386	33.923020954306	0
0	388	34.969303667443	1
0	390	35.009918143083	2
0	393	35.10908480975	0
0	395	35.288968594721	1
0	397	35.388135261388	0
0	399	35.521285308821	1
0	401	35.524676441407	2
0	404	35.623843108074	0
0	406	35.667845072965	1
0	408	35.767011739632	0
0	410	35.873457904216	1
0	412	35.959171113903	2
0	415	36.05833778057	0
0	417	37.160841863018	1
0	419	37.260008529685	0
0	421	38.642348411006	1
0	423	38.741515077673	0
0	425	38.998919175144	1
0	427	39.083184197932	2
0	430	39.182350864599	0
0	432	39.229602184392	1
0	434	39.328768851059	0
0	436	39.526992268106	1
0	438	39.626158934773	0
0	440	40.210456553617	1
0	442	40.309623220284	0
0	444	41.145487536728	1
0	446	41.244654203395	0
0	448	41.635097786152	1
0	450	41.734264452819	0
0	452	41.920252201435	1
0	454	42.016685049214	2
0	457	42.115851715881	0
0	459	42.245227036232	1
0	461	42.344393702899	0
0	463	42.829589196313	1
0	465	42.895064300094	2
0	468	42.994230966761	0
0	470	43.897973472502	1
0	472	43.965184302059	2
0	475	44.045150871129	2
0	478	44.144317537796	0
0	480	44.145453509784	1
0	482	44.244620176451	0
0	484	45.616011635451	1
0	486	45.715178302118	0
0	488	46.625203907548	1
0	490	46.724370574215	0
0	492	46.857206048101	1
0	494	46.956372714768	0
0	496	47.174766334369	1
0	498	47.181447716642	2
0	501	47.280614383309	0
0	503	47.500429564918	1
0	505	47.599596231585	0
0	507	47.843938113037	1
0	509	47.943104779704	0
0	511	48.14442535815	1
0	513	48.243592024817	0
0	515	49.835577284227	1
0	517	49.889543265434	2
0	520	49.988709932101	0
0	522	50.004540445996	1
0	524	50.044264084411	2
0	526	50.087327300542	2
0	530	50.186493967209	0
0	532	50.232460686992	1
0	534	50.233971332087	2
0	537	50.333137998754	0
0	539	50.462018011019	1
0	541	50.475646506408	2
0	544	50.574813173075	0
0	546	51.478705085925	1
0	548	51.512063513708	2
0	551	51.611230180375	0
0	553	52.923634931792	1
0	555	52.924781083102	2
0	558	53.023947749769	0
0	560	53.131574494535	1
0	562	53.230741161202	0
0	564	53.464839031148	1
0	566	53.518475464421	2
0	569	53.617642131088	0
0	571	53.655931534858	1
0	573	53.755098201525	0
0	575	53.838733967951	1
0	577	53.937900634618	0
0	579	53.970233077414	1
0	581	54.069399744081	0
0	583	54.129942566035	1
0	585	54.18006873644	2
0	588	54.279235403107	0
0	590	54.346909073485	1
0	592	54.446075740152	0
0	594	54.567819384159	1
0	596	54.588416527986	2
0	598	54.644159422419	2
0	602	54.743326089086	0
0	604	54.883675642817	1
0	606	54.982842309484	0
0	608	54.993003935125	1
0	610	54.995250445778	2
0	613	55.094417112445	0
0	615	55.225727045302	1
0	617	55.324893711969	0
0	619	55.520256994155	1
0	621	55.619423660822	0
0	623	55.954548397521	1
0	625	56.053715064188	0
0	627	56.146028172808	1
0	629	56.196276558704	2
0	632	56.295443225371	0
0	634	56.424830602845	1
0	636	56.523997269512	0
0	638	56.823719430597	1
0	640	56.922886097264	0
0	642	57.086622770088	1
0	644	57.185789436755	0
0	646	57.610974066557	1
0	648	57.710140733224	0
0	650	57.717828230999	1
0	652	57.816994897666	0
0	654	58.209922008226	1
0	656	58.284938818756	2
0	659	58.384105485423	0
0	661	58.917459942332	1
0	663	59.016626608999	0
0	665	59.437455347922	1
0	667	59.536622014589	0
0	669	59.573688498088	1
0	671	59.672855164755	0
0	673	59.806553459756	1
0	675	59.905720126423	0
0	677	60.164665305664	1
0	679	60.263831972331	0
0	681	60.419133256215	1
0	683	60.477647957742	2
0	686	60.576814624409	0
0	688	61.203442756991	1
0	690	61.302609423658	0
0	692	61.321113469343	1
0	694	61.3936409944	2
0	697	61.492807661067	0
0	699	61.85511014105	1
0	701	61.902541192368	2
0	704	62.001707859035	0
0	706	62.169510254343	1
0	708	62.26867692101	0
0	710	62.384941767971	1
0	712	62.484108434638	0
0	714	62.772011562981	1
0	716	62.823572802374	2
0	718	62.86321220224	2
0	722	62.962378868907	0
0	724	63.342483184438	1
0	726	63.441649851105	0
0	728	63.703517962503	1
0	730	63.80268462917	0
0	732	63.95677054417	1
0	734	63.999068983505	2
0	737	64.098235650172	0
0	739	64.157539377735	1
0	741	64.256706044402	0
0	743	64.920753066013	1
0	745	65.01991973268	0
0	747	65.878637252144	1
0	749	65.977803918811	0
0	751	67.070030896871	1
0	753	67.169197563538	0
0	755	67.220551408894	1
0	757	67.319718075561	0
0	759	68.07089770122	1
0	761	68.092155839152	2
0	764	68.191322505819	0
0	766	68.348049676782	1
0	768	68.426006810337	2
0	770	68.446607919023	2
0	774	68.533050505149	2
0	777	68.632217171816	0
0	779	68.714108333581	1
0	781	68.813275000248	0
0	783	69.083810981836	1
0	785	69.176807477888	2
0	788	69.275974144555	0
0	790	69.392855221875	1
0	792	69.492021888542	0
0	794	69.693261750861	1
0	796	69.758646037223	2
0	799	69.85781270389	0
0	801	71.462297747763	1
0	803	71.56146441443	0
0	805	71.941236797667	1
0	807	72.040403464334	0
0	809	72.099761771538	1
0	811	72.198928438205	0
0	813	72.363633234873	1
0	815	72.410492522236	2
0	818	72.509659188903	0
0	820	72.629680945536	1
0	822	72.728847612203	0
0	824	72.9199570399	1
0	826	73.019123706567	0
0	828	73.54566314387	1
0	830	73.570288369823	2
0	833	73.66945503649	0
0	835	74.385801368565	1
0	837	74.484968035232	0
0	839	75.20804050956	1
0	841	75.307207176227	0
0	843	75.472134319435	1
0	845	75.571300986102	0
0	847	75.632740733232	1
0	849	75.71644791141	2
0	852	75.815614578077	0
0	854	76.348381483812	1
0	856	76.447548150479	0
0	858	76.932164096367	1
0	860	77.031330763034	0
0	862	77.155675041171	1
0	864	77.223763231655	2
0	867	77.322929898322	0
0	869	77.341348512167	1
0	871	77.440515178834	0
0	873	78.245306967831	1
0	875	78.246465154169	2
0	878	78.345631820836	0
0	880	78.629507218019	1
0	882	78.728673884686	0
0	884	78.775148233738	1
0	886	78.874314900405	0
0	888	79.533255403143	1
0	890	79.603498878875	2
0	893	79.702665545542	0
0	895	79.762682964632	1
0	897	79.861849631299	0
0	899	80.079558520595	1
0	901	80.178725187262	0
0	903	81.409790642786	1
0	905	81.508957309453	0
0	907	81.807506570624	1
0	909	81.906673237291	0
0	911	82.038474800604	1
0	913	82.137641467271	0
0	915	82.481663910153	1
0	917	82.58083057682	0
0	919	83.179633471848	1
0	921	83.267838933673	2
0	924	83.348003241357	2
0	927	83.447169908024	0
0	929	83.526824188216	1
0	931	83.625990854883	0
0	933	83.806369717021	1
0	935	83.905536383688	0
0	937	83.931304376179	1
0	939	84.030471042846	0
0	941	84.363227117139	1
0	943	84.462393783806	0
0	945	85.204445141787	1
0	947	85.303611808454	0
0	949	85.494108998157	1
0	951	85.593275664824	0
0	953	85.856666141401	1
0	955	85.955832808068	0
0	957	86.462017347333	1
0	959	86.561184014	0
0	961	87.320451521273	1
0	963	87.41961818794	0
0	965	87.552899896583	1
0	967	87.65206656325	0
0	969	88.193602675321	1
0	971	88.292769341988	0
0	973	88.946894734084	1
0	975	89.046061400751	0
0	977	89.254743688255	1
0	979	89.353910354922	0
0	981	89.685020888407	1
0	983	89.745261237952	2
0	986	89.844427904619	0
0	988	90.217575411157	1
0	990	90.316742077824	0
0	992	90.530048188319	1
0	994	90.629214854986	0
0	996	91.062703559112	1
0	998	91.161870225779	0
0	1000	91.256898705654	1
0	1002	91.356065372321	0
0	1004	91.551801965482	1
0	1006	91.650968632149	0
0	1008	91.876307285055	1
0	1010	91.975473951722	0
0	1012	93.05955993423	1
0	1014	93.076963091846	2
0	1017	93.176129758513	0
0	1019	93.437532927597	1
0	1021	93.536699594264	0
0	1023	94.378107741323	1
0	1025	94.464424787644	2
0	1028	94.534667682019	2
0	1031	94.633834348686	0
0	1033	94.716689535123	1
0	1035	94.81585620179	0
0	1037	94.987301623457	1
0	1039	95.086468290124	0
0	1041	95.211811285026	1
0	1043	95.310977951693	0
0	1045	96.468960076809	1
0	1047	96.568126743476	0
0	1049	97.082768263997	1
0	1051	97.181934930664	0
0	1053	97.585451156325	1
0	1055	97.684617822992	0
0	1057	97.83182720731	1
0	1059	97.929568219919	2
0	1062	98.028734886586	0
0	1064	98.110620055897	1
0	1066	98.209786722564	0
0	1068	98.922628113698	1
0	1070	99.021794780365	0
0	1072	99.292117698491	1
0	1074	99.391284365158	0
0	1076	102.352673816745	1
0	1078	102.451840483412	0
0	1080	102.589990562491	1
0	1082	102.659101559741	2
0	1085	102.758268226408	0
0	1087	102.984442983398	1
0	1089	103.083609650065	0
0	1091	103.40588183729	1
0	1093	103.500345337406	2
0	1096	103.599512004073	0
0	1098	103.900232554447	1
0	1100	103.999399221114	0
0	1102	104.161186030801	1
0	1104	104.260352697468	0
0	1106	104.34420576445	1
0	1108	104.443372431117	0
0	1110	104.491801426866	1
0	1112	104.590968093533	0
0	1114	104.874044858326	1
0	1116	104.973211524993	0
0	1118	105.17475749291	1
0	1120	105.273924159577	0
0	1122	106.258178663357	1
0	1124	106.278365069369	2
0	1126	106.297689957924	2
0	1130	106.396856624591	0
0	1132	106.500393973867	1
0	1134	106.599560640534	0
0	1136	107.12502323775	1
0	1138	107.148146724454	2
0	1141	107.247313391121	0
0	1143	107.528510566034	1
0	1145	107.627677232701	0
0	1147	107.656876376665	1
0	1149	107.702809365981	2
0	1152	107.801976032648	0
0	1154	107.865919241017	1
0	1156	107.965085907684	0
0	1158	108.326494268173	1
0	1160	108.42566093484	0
0	1162	108.558039411789	1
0	1164	108.657206078456	0
0	1166	109.114772826402	1
0	1168	109.187955626823	2
0	1171	109.276292022096	2
0	1174	109.375458688763	0
0	1176	109.767518923204	1
0	1178	109.866685589871	0
0	1180	110.193551981456	1
0	1182	110.292718648123	0
0	1184	110.702833968686	1
0	1186	110.802000635353	0
0	1188	110.816874301054	1
0	1190	110.916040967721	0
0	1192	111.075835064728	1
0	1194	111.175001731395	0
0	1196	111.303110725298	1
0	1198	111.402277391965	0
0	1200	112.996275547738	1
0	1202	113.056938461051	2
0	1205	113.113274726731	2
0	1208	113.212441393398	0
0	1210	113.885170478869	1
0	1212	113.984337145536	0
0	1214	114.003388903465	1
0	1216	114.040173459363	2
0	1219	114.13934012603	0
0	1221	114.45664728646	1
0	1223	114.555813953127	0
0	1225	116.250195249458	1
0	1227	116.347841651607	2
0	1230	116.372760949514	2
0	1233	116.471927616181	0
0	1235	116.73177992305	1
0	1237	116.753446519863	2
0	1240	116.85261318653	0
0	1242	117.057298597574	1
0	1244	117.156465264241	0
0	1246	117.712275834311	1
0	1248	117.811442500978	0
0	1250	118.307056985368	1
0	1252	118.406223652035	0
0	1254	118.753558626588	1
0	1256	118.852725293255	0
0	1258	119.018051362725	1
0	1260	119.117218029392	0
0	1262	119.705501230931	1
0	1264	119.804667897598	0
0	1266	120.195409573737	1
0	1268	120.294576240404	0
0	1270	121.01488965515	1
0	1272	121.114056321817	0
0	1274	121.950756829273	1
0	1276	122.04992349594	0
0	1278	122.815152106046	1
0	1280	122.914318772713	0
0	1282	123.331923307201	1
0	1284	123.431089973868	0
0	1286	123.460121441046	1
0	1288	123.559288107713	0
0	1290	124.090882850343	1
0	1292	124.19004951701	0
0	1294	124.191523586847	1
0	1296	124.290690253514	0
0	1298	124.338298065845	1
0	1300	124.437464732512	0
0	1302	125.676392921144	1
0	1304	125.775559587811	0
0	1306	125.993101183586	1
0	1308	126.092267850253	0
0	1310	126.112479515492	1
0	1312	126.211646182159	0
0	1314	126.267818572387	1
0	1316	126.366985239054	0
0	1318	126.697433664734	1
0	1320	126.796600331401	0
0	1322	126.909684306145	1
0	1324	127.008850972812	0
0	1326	127.522279802889	1
0	1328	127.621446469556	0
0	1330	127.647456617666	1
0	1332	127.746623284333	0
0	1334	128.043289676548	1
0	1336	128.08453118935	2
0	1338	128.084705479048	2
0	1341	128.180662323936	2
0	1345	128.279828990603	0
0	1347	128.641873547071	1
0	1349	128.741040213738	0
0	1351	129.422990410697	1
0	1353	129.522157077364	0
0	1355	129.792072759656	1
0	1357	129.794429110149	2
0	1360	129.893595776816	0
0	1362	130.902931279887	1
0	1364	131.002097946554	0
0	1366	131.053419310854	1
0	1368	131.152585977521	0
0	1370	131.40582009265	1
0	1372	131.504986759317	0
0	1374	131.585708031306	1
0	1376	131.684874697973	0
0	1378	132.874657642875	1
0	1380	132.973824309542	0
0	1382	133.237922768434	1
0	1384	133.337089435101	0
0	1386	133.511199959545	1
0	1388	133.610366626212	0
0	1390	133.681505696698	1
0	1392	133.780672363365	0
0	1394	134.092739682525	1
0	1396	134.111730506162	2
0	1399	134.210897172829	0
0	1401	134.60249373718	1
0	1403	134.701660403847	0
0	1405	134.770403586433	1
0	1407	134.8695702531	0
0	1409	134.911763019126	1
0	1411	134.921208093546	2
0	1414	135.020374760213	0
0	1416	135.260891671952	1
0	1418	135.26183726016	2
0	1420	135.323251664092	2
0	1424	135.408710429031	2
0	1427	135.507877095698	0
0	1429	135.556420617752	1
0	1431	135.655587284419	0
0	1433	135.821037961679	1
0	1435	135.920204628346	0
0	1437	136.125625128641	1
0	1439	136.224791795308	0
0	1441	136.234756860922	1
0	1443	136.321450956457	2
0	1446	136.420617623124	0
0	1448	137.67989297808	1
0	1450	137.779059644747	0
0	1452	138.282698795132	1
0	1454	138.381865461799	0
0	1456	138.456779865193	1
0	1458	138.55594653186	0
0	1460	139.191130872947	1
0	1462	139.290297539614	0
0	1464	139.680712777065	1
0	1466	139.779879443732	0
0	1468	140.543781362347	1
0	1470	140.642948029014	0
0	1472	142.182422348984	1
0	1474	142.281589015651	0
0	1476	142.766089479797	1
0	1478	142.801301413568	2
0	1481	142.900468080235	0
0	1483	143.600582885244	1
0	1485	143.699749551911	0
0	1487	143.836023892448	1
0	1489	143.904447801164	2
0	1492	144.003614467831	0
0	1494	144.099990710673	1
0	1496	144.19915737734	0
0	1498	145.321479347408	1
0	1500	145.368212607502	2
0	1503	145.467379274169	0
0	1505	145.507480624318	1
0	1507	145.606647290985	0
0	1509	145.695779944999	1
0	1511	145.794946611666	0
0	1513	145.879003449302	1
0	1515	145.978170115969	0
0	1517	146.404136578875	1
0	1519	146.503303245542	0
0	1521	146.669802997884	1
0	1523	146.768969664551	0
0	1525	147.138836591263	1
0	1527	147.194051760905	2
0	1530	147.293218427572	0
0	1532	147.664151560681	1
0	1534	147.763318227348	0
0	1536	148.289540694647	1
0	1538	148.306295432511	2
0	1541	148.405462099178	0
0	1543	148.671690067315	1
0	1545	148.770856733982	0
0	1547	149.255672445345	1
0	1549	149.354839112012	0
0	1551	149.880127203319	1
0	1553	149.979293869986	0
0	1555	150.785653532028	1
0	1557	150.884820198695	0
0	1559	150.984746488278	1
0	1561	151.083913154945	0
0	1563	151.098022896472	1
0	1565	151.197189563139	0
0	1567	151.785226178798	1
0	1569	151.816843062339	2
0	1572	151.916009729006	0
0	1574	152.70757393908	1
0	1576	152.806740605747	0
0	1578	152.847060571791	1
0	1580	152.882733396688	2
0	1583	152.954610409939	2
0	1586	153.053777076606	0
0	1588	153.088079374856	1
0	1590	153.139274142068	2
0	1593	153.238440808735	0
0	1595	153.386133814246	1
0	1597	153.485300480913	0
0	1599	153.86641987136	1
0	1601	153.877586921481	2
0	1604	153.976753588148	0
0	1606	154.115114350769	1
0	1608	154.214281017436	0
0	1610	155.196259905997	1
0	1612	155.295426572664	0
0	1614	155.378326124392	1
0	1616	155.477492791059	0
0	1618	155.754569727418	1
0	1620	155.853736394085	0
0	1622	156.405903591227	1
0	1624	156.505070257894	0
0	1626	156.945746798159	1
0	1628	157.020924523918	2
0	1631	157.120091190585	0
0	1633	157.166052403788	1
0	1635	157.265219070455	0
0	1637	157.585911374138	1
0	1639	157.685078040805	0
0	1641	158.047113714996	1
0	1643	158.054088604294	2
0	1645	158.08631876651	2
0	1649	158.185485433177	0
0	1651	158.212758674001	1
0	1653	158.311925340668	0
0	1655	158.527317223906	1
0	1657	158.626483890573	0
0	1659	159.177842388924	1
0	1661	159.24874321377	2
0	1664	159.347909880437	0
0	1666	159.383611125067	1
0	1668	159.441439012479	2
0	1671	159.540605679146	0
0	1673	159.84203113556	1
0	1675	159.926641613854	2
0	1678	160.025808280521	0
0	1680	160.40263839592	1
0	1682	160.501805062587	0
0	1684	160.744820219832	1
0	1686	160.822038083176	2
0	1688	160.842633218167	2
0	1692	160.941799884834	0
0	1694	161.028030488764	1
0	1696	161.127197155431	0
0	1698	161.725143431962	1
0	1700	161.824310098629	0
0	1702	161.918713998299	1
0	1704	162.017880664966	0
0	1706	162.216169743255	1
0	1708	162.315336409922	0
0	1710	162.415602857371	1
0	1712	162.514769524038	0
0	1714	162.721875235668	1
0	1716	162.821041902335	0
0	1718	163.243205506967	1
0	1720	163.342372173634	0
0	1722	163.807386487004	1
0	1724	163.906553153671	0
0	1726	164.115793231651	1
0	1728	164.214959898318	0
0	1730	164.4427187976	1
0	1732	164.531288649394	2
0	1735	164.630455316061	0
0	1737	165.093059316591	1
0	1739	165.192225983258	0
0	1741	165.515109555678	1
0	1743	165.614276222345	0
0	1745	165.684964466712	1
0	1747	165.784131133379	0
0	1749	166.38943794098	1
0	1751	166.488604607647	0
0	1753	166.524568633129	1
0	1755	166.623735299796	0
0	1757	166.671192624624	1
0	1759	166.673536471792	2
0	1762	166.772703138459	0
0	1764	166.937717769334	1
0	1766	167.036884436001	0
0	1768	167.837754347608	1
0	1770	167.912549627107	2
0	1773	168.011716293774	0
0	1775	168.09061315239	1
0	1777	168.189779819057	0
0	1779	168.200476406251	1
0	1781	168.299643072918	0
0	1783	168.326700052342	1
0	1785	168.420569696425	2
0	1788	168.519736363092	0
0	1790	168.807453136197	1
0	1792	168.906619802864	0
0	1794	168.950582768521	1
0	1796	169.049749435188	0
0	1798	169.173006089804	1
0	1800	169.272172756471	0
0	1802	169.454254600164	1
0	1804	169.553421266831	0
0	1806	170.050402864544	1
0	1808	170.149569531211	0
0	1810	170.460284858232	1
0	1812	170.559451524899	0
0	1814	171.14420680798	1
0	1816	171.243373474647	0
0	1818	171.938117472358	1
0	1820	172.037284139025	0
0	1822	172.270098602918	1
0	1824	172.369265269585	0
0	1826	173.215921148781	1
0	1828	173.315087815448	0
0	1830	173.999013682141	1
0	1832	174.098180348808	0
0	1834	174.497431890938	1
0	1836	174.596598557605	0
0	1838	175.0029737736	1
0	1840	175.092183093978	2
0	1843	175.16059629264	2
0	1846	175.259762959307	0
0	1848	175.928739009162	1
0	1850	175.929319216349	2
0	1853	176.028485883016	0
0	1855	176.075635817855	1
0	1857	176.174802484522	0
0	1859	176.308931505033	1
0	1861	176.365933337614	2
0	1864	176.465100004281	0
0	1866	176.620808545638	1
0	1868	176.719975212305	0
0	1870	176.749377583531	1
0	1872	176.848544250198	0
0	1874	177.363642661938	1
0	1876	177.462809328605	0
0	1878	178.075797651149	1
0	1880	178.174964317816	0
0	1882	178.194675531608	1
0	1884	178.293842198275	0
0	1886	179.271429845623	1
0	1888	179.37059651229	0
0	1890	180.184287226233	1
0	1892	180.226126260657	2
0	1894	180.271856749118	2
0	1898	180.371023415785	0
0	1900	180.378077707997	1
0	1902	180.477244374664	0
0	1904	180.576023216968	1
0	1906	180.675189883635	0
0	1908	181.288014612375	1
0	1910	181.387181279042	0
0	1912	181.446652186275	1
0	1914	181.461990623969	2
0	1917	181.561157290636	0
0	1919	183.771452063607	1
0	1921	183.809478306191	2
0	1924	183.908644972858	0
0	1926	184.701639576492	1
0	1928	184.800806243159	0
0	1930	185.915158185917	1
0	1932	186.014324852584	0
0	1934	186.046227159756	1
0	1936	186.145393826423	0
0	1938	186.843300679239	1
0	1940	186.893359699622	2
0	1943	186.992526366289	0
0	1945	187.667765719679	1
0	1947	187.717449507721	2
0	1950	187.816616174388	0
0	1952	188.24592628106	1
0	1954	188.345092947727	0
0	1956	188.408569381551	1
0	1958	188.507736048218	0
0	1960	188.587358616901	1
0	1962	188.595438001261	2
0	1965	188.694604667928	0
0	1967	189.180793177596	1
0	1969	189.231965564779	2
0	1972	189.331132231446	0
0	1974	189.355466365448	1
0	1976	189.454633032115	0
0	1978	189.558161580821	1
0	1980	189.657328247488	0
0	1982	190.15480533649	1
0	1984	190.253972003157	0
0	1986	190.387982441292	1
0	1988	190.487149107959	0
0	1990	190.695842201171	1
0	1992	190.733138796321	2
0	1995	190.832305462988	0
0	1997	191.669791901334	1
0	1999	191.719428423637	2
0	2002	191.818595090304	0
0	2004	192.080698100329	1
0	2006	192.179864766996	0
0	2008	192.40105127095	1
0	2010	192.500217937617	0
0	2012	192.584495935167	1
0	2014	192.683662601834	0
0	2016	193.0170576094	1
0	2018	193.116224276067	0
0	2020	194.397895115349	1
0	2022	194.497061782016	0
0	2024	194.845116685043	1
0	2026	194.94428335171	0
0	2028	195.447488244231	1
0	2030	195.521563226375	2
0	2033	195.620729893042	0
0	2035	195.92181439374	1
0	2037	196.020981060407	0
0	2039	196.26631481358	1
0	2041	196.365481480247	0
0	2043	196.815679652111	1
0	2045	196.914846318778	0
0	2047	196.937119780528	1
0	2049	197.036286447195	0
0	2051	197.549854794952	1
0	2053	197.649021461619	0
0	2055	198.034134522962	1
0	2057	198.036470554868	2
0	2059	198.058915119145	2
0	2063	198.158081785812	0
0	2065	198.242910407119	1
0	2067	198.342077073786	0
0	2069	198.498393439872	1
0	2071	198.597560106539	0
0	2073	198.634968176593	1
0	2075	198.73413484326	0
0	2077	198.911516388718	1
0	2079	199.010683055385	0
0	2081	199.292902803257	1
0	2083	199.392069469924	0
0	2085	200.09137598156	1
0	2087	200.190542648227	0
0	2089	200.307092037265	1
0	2091	200.406258703932	0
0	2093	200.502142281064	1
0	2095	200.601308947731	0
0	2097	201.604462903355	1
0	2099	201.703629570022	0
0	2101	202.253537417455	1
0	2103	202.352704084122	0
0	2105	202.447002709293	1
0	2107	202.54616937596	0
0	2109	202.954799387245	1
0	2111	203.053966053912	0
0	2113	203.230584856304	1
0	2115	203.26379877607	2
0	2118	203.362965442737	0
0	2120	203.927931151663	1
0	2122	204.02709781833	0
0	2124	204.207839786112	1
0	2126	204.307006452779	0
0	2128	204.473304384708	1
0	2130	204.572471051375	0
0	2132	205.80563455915	1
0	2134	205.829283050243	2
0	2136	205.881697038013	2
0	2140	205.979862126765	2
0	2143	206.079028793432	0
0	2145	206.409453784421	1
0	2147	206.508620451088	0
0	2149	207.170222510581	1
0	2151	207.269389177248	0
0	2153	207.434016938773	1
0	2155	207.53318360544	0
0	2157	207.726417468497	1
0	2159	207.825584135164	0
0	2161	207.830216869707	1
0	2163	207.883156838113	2
0	2166	207.98232350478	0
0	2168	208.800369767443	1
0	2170	208.89953643411	0
0	2172	209.449306510339	1
0	2174	209.543793927745	2
0	2177	209.642960594412	0
0	2179	209.698211179898	1
0	2181	209.728130742259	2
0	2184	209.827297408926	0
0	2186	209.828725400698	1
0	2188	209.927892067365	0
0	2190	209.991831439091	1
0	2192	210.090998105758	0
0	2194	210.341491108369	1
0	2196	210.440657775036	0
0	2198	210.671095442255	1
0	2200	210.717476774726	2
0	2203	210.816643441393	0
0	2205	210.884243333931	1
0	2207	210.908519807898	2