version 3
run PureAlohaExperiment-2-20260306-12:10:16-8840
attr configname PureAlohaExperiment
attr datetime 20260306-12:10:16
attr datetimef 20260306-121016
attr experiment PureAlohaExperiment
attr inifile omnetpp.ini
attr iterationvars "$numHosts=10, $iaMean=2"
attr iterationvarsd numHosts=10/iaMean=2
attr iterationvarsf numHosts=10,iaMean=2-
attr measurement "$numHosts=10, $iaMean=2"
attr network Aloha
attr processid 8840
attr repetition 0
attr replication #0
attr resultdir results
attr runnumber 2
attr seedset 2
itervar iaMean 2
itervar numHosts 10
config description "Channel utilization in the function of packet generation frequency"
config repeat 2
config sim-time-limit 90min
config Aloha.numHosts 10
config Aloha.host[*].iaTime exponential(2s)
config network Aloha
config Aloha.numHosts 20
config Aloha.slotTime 0s
config Aloha.txRate 9.6kbps
config Aloha.host[*].pkLenBits 952b
config **.x "uniform(0m, 1000m)"
config **.y "uniform(0m, 1000m)"
config **.animationHoldTimeOnCollision 0s
config **.idleAnimationSpeed 1
config **.transmissionEdgeAnimationSpeed 1e-6
config **.midTransmissionAnimationSpeed 1e-1

vector 0 Aloha.server serverChannelState:vector ETV
attr enum IDLE=0,TRANSMISSION=1,COLLISION=2
attr recordingmode vector
attr source channelState
attr title "Channel state"
vector 1 Aloha.host[0] radioState:vector ETV
attr enum IDLE=0,TRANSMIT=1
attr recordingmode vector
attr source state
attr title "Radio state"
vector 2 Aloha.host[1] radioState:vector ETV
attr enum IDLE=0,TRANSMIT=1
attr recordingmode vector
attr source state
attr title "Radio state"
vector 3 Aloha.host[2] radioState:vector ETV
attr enum IDLE=0,TRANSMIT=1
attr recordingmode vector
attr source state
attr title "Radio state"
vector 4 Aloha.host[3] radioState:vector ETV
attr enum IDLE=0,TRANSMIT=1
attr recordingmode vector
attr source state
attr title "Radio state"
vector 5 Aloha.host[4] radioState:vector ETV
attr enum IDLE=0,TRANSMIT=1
attr recordingmode vector
attr source state
attr title "Radio state"
vector 6 Aloha.host[5] radioState:vector ETV
attr enum IDLE=0,TRANSMIT=1
attr recordingmode vector
attr source state
attr title "Radio state"
vector 7 Aloha.host[6] radioState:vector ETV
attr enum IDLE=0,TRANSMIT=1
attr recordingmode vector
attr source state
attr title "Radio state"
vector 8 Aloha.host[7] radioState:vector ETV
attr enum IDLE=0,TRANSMIT=1
attr recordingmode vector
attr source state
attr title "Radio state"
vector 9 Aloha.host[8] radioState:vector ETV
attr enum IDLE=0,TRANSMIT=1
attr recordingmode vector
attr source state
attr title "Radio state"
vector 10 Aloha.host[9] radioState:vector ETV
attr enum IDLE=0,TRANSMIT=1
attr recordingmode vector
attr source state
attr title "Radio state"
vector 11 Aloha.server channelUtilizationVector:vector ETV
attr interpolationmode linear
attr recordingmode vector
attr source timeavg(receive)
attr title "channel utilization evolution"
0	0	0	0
0	2	0.289081547821	1
0	4	0.388248214488	0
0	6	0.407760882721	1
0	8	0.506927549388	0
0	10	0.598157260475	1
0	12	0.697323927142	0
0	14	1.380547751541	1
0	16	1.441358289614	2
0	19	1.506400657915	2
0	22	1.605567324582	0
0	24	1.767634340359	1
0	26	1.866801007026	0
0	28	1.995128115254	1
0	30	2.032793658038	2
0	32	2.06069749375	2
0	34	2.087157208195	2
0	39	2.186323874862	0
0	41	2.297873595497	1
0	43	2.321354310171	2
0	46	2.420520976838	0
0	48	2.525874668663	1
0	50	2.544177727726	2
0	53	2.643344394393	0
0	55	2.846371181775	1
0	57	2.864713168389	2
0	59	2.872075197521	2
0	63	2.971241864188	0
0	65	3.076026547813	1
0	67	3.07735618181	2
0	70	3.176522848477	0
0	72	3.235885802309	1
0	74	3.335052468976	0
0	76	3.346656454063	1
0	78	3.44582312073	0
0	80	3.538181329101	1
0	82	3.539349903115	2
0	85	3.638516569782	0
0	87	3.847450295873	1
0	89	3.863563748748	2
0	92	3.947456940379	2
0	95	4.046623607046	0
0	97	4.236207076829	1
0	99	4.334824739427	2
0	102	4.433991406094	0
0	104	4.444324979551	1
0	106	4.543491646218	0
0	108	4.702794739991	1
0	110	4.801961406658	0
0	112	4.844862282311	1
0	114	4.907655004128	2
0	117	4.991567067759	2
0	120	5.090733734426	0
0	122	5.252611331793	1
0	124	5.28943572972	2
0	127	5.388602396387	0
0	129	5.459551232169	1
0	131	5.558717898836	0
0	133	5.684953742404	1
0	135	5.695416216724	2
0	138	5.794582883391	0
0	140	6.208786397448	1
0	142	6.307953064115	0
0	144	6.556170777984	1
0	146	6.655337444651	0
0	148	6.671472967774	1
0	150	6.770639634441	0
0	152	6.77301335711	1
0	154	6.872180023777	0
0	156	6.966069592511	1
0	158	7.052385034336	2
0	161	7.151551701003	0
0	163	7.214905959278	1
0	165	7.314072625945	0
0	167	7.319732433948	1
0	169	7.418899100615	0
0	171	7.505738841844	1
0	173	7.604905508511	0
0	175	7.635736345367	1
0	177	7.734903012034	0
0	179	7.95983187897	1
0	181	8.058998545637	0
0	183	8.206767697819	1
0	185	8.305934364486	0
0	187	8.539542638008	1
0	189	8.607201077748	2
0	192	8.706367744415	0
0	194	9.083053342573	1
0	196	9.128644039872	2
0	199	9.227810706539	0
0	201	9.483764072337	1
0	203	9.582930739004	0
0	205	9.692262181787	1
0	207	9.791428848454	0
0	209	9.811578881578	1
0	211	9.831866632366	2
0	214	9.931033299033	0
0	216	10.06373744973	1
0	218	10.162904116397	0
0	220	10.340472367165	1
0	222	10.439639033832	0
0	224	10.509534799122	1
0	226	10.608701465789	0
0	228	11.046678966394	1
0	230	11.145845633061	0
0	232	11.429792873307	1
0	234	11.466129777457	2
0	236	11.481608232604	2
0	240	11.580774899271	0
0	242	11.58769271195	1
0	244	11.686859378617	0
0	246	12.221662766772	1
0	248	12.320829433439	0
0	250	12.790591069964	1
0	252	12.889757736631	0
0	254	13.099332489504	1
0	256	13.112210354179	2
0	259	13.211377020846	0
0	261	13.382699607388	1
0	263	13.475704106497	2
0	266	13.574870773164	0
0	268	14.143063079869	1
0	270	14.242229746536	0
0	272	14.414228128251	1
0	274	14.461195846634	2
0	276	14.487363826881	2
0	280	14.586530493548	0
0	282	15.521789629925	1
0	284	15.620956296592	0
0	286	15.629208715322	1
0	288	15.728375381989	0
0	290	15.783533782159	1
0	292	15.882700448826	0
0	294	16.008149069812	1
0	296	16.107315736479	0
0	298	16.120440024662	1
0	300	16.159078969376	2
0	303	16.258245636043	0
0	305	16.397255287447	1
0	307	16.496421954114	0
0	309	16.56400527454	1
0	311	16.663171941207	0
0	313	16.675166643115	1
0	315	16.774333309782	0
0	317	17.349247503202	1
0	319	17.448414169869	0
0	321	17.704137705436	1
0	323	17.803304372103	0
0	325	17.833910708067	1
0	327	17.933077374734	0
0	329	18.31900706284	1
0	331	18.418173729507	0
0	333	18.628520418506	1
0	335	18.727687085173	0
0	337	19.183478626854	1
0	339	19.201684174034	2
0	342	19.300850840701	0
0	344	19.398370243877	1
0	346	19.497536910544	0
0	348	20.56937484098	1
0	350	20.668541507647	0
0	352	20.809323538778	1
0	354	20.839779461359	2
0	356	20.880366181972	2
0	360	20.979532848639	0
0	362	21.039335138481	1
0	364	21.138501805148	0
0	366	21.154538375252	1
0	368	21.253705041919	0
0	370	21.632461076269	1
0	372	21.731627742936	0
0	374	21.734686808335	1
0	376	21.833853475002	0
0	378	22.03350149939	1
0	380	22.089863106936	2
0	383	22.189029773603	0
0	385	22.196848807387	1
0	387	22.226178465094	2
0	390	22.325345131761	0
0	392	22.441332377048	1
0	394	22.540499043715	0
0	396	22.613680547801	1
0	398	22.623457675442	2
0	401	22.722624342109	0
0	403	23.704980889885	1
0	405	23.804147556552	0
0	407	24.124984817091	1
0	409	24.170108950969	2
0	412	24.269275617636	0
0	414	24.500596694727	1
0	416	24.599763361394	0
0	418	24.704234527348	1
0	420	24.803401194015	0
0	422	24.809506276039	1
0	424	24.908672942706	0
0	426	25.00591929924	1
0	428	25.105085965907	0
0	430	25.201283805101	1
0	432	25.300450471768	0
0	434	25.882506998448	1
0	436	25.887094391945	2
0	439	25.986261058612	0
0	441	26.10661640317	1
0	443	26.205783069837	0
0	445	26.216902766602	1
0	447	26.316069433269	0
0	449	26.508355351801	1
0	451	26.607522018468	0
0	453	26.846432251346	1
0	455	26.945598918013	0
0	457	26.971804530149	1
0	459	27.070971196816	0
0	461	27.269596095783	1
0	463	27.361990192385	2
0	466	27.461156859052	0
0	468	27.584097977165	1
0	470	27.683264643832	0
0	472	27.940041275758	1
0	474	27.950319305667	2
0	477	28.049485972334	0
0	479	28.120625327089	1
0	481	28.219791993756	0
0	483	28.311012316822	1
0	485	28.410178983489	0
0	487	28.461945062877	1
0	489	28.561111729544	0
0	491	28.655540985346	1
0	493	28.754707652013	0
0	495	28.868234270914	1
0	497	28.938127849942	2
0	500	29.037294516609	0
0	502	29.215097265683	1
0	504	29.31426393235	0
0	506	29.464106444841	1
0	508	29.563273111508	0
0	510	29.797313333554	1
0	512	29.896480000221	0
0	514	30.017783688742	1
0	516	30.116950355409	0
0	518	30.366564281058	1
0	520	30.463233296755	2
0	523	30.56185493797	2
0	526	30.661021604637	0
0	528	30.925322173074	1
0	530	30.937896771001	2
0	533	31.037063437668	0
0	535	31.188915307427	1
0	537	31.203885883236	2
0	540	31.303052549903	0
0	542	31.426650372515	1
0	544	31.525817039182	0
0	546	31.722216006065	1
0	548	31.765133109142	2
0	551	31.864299775809	0
0	553	32.139884586443	1
0	555	32.231893042018	2
0	558	32.331059708685	0
0	560	32.416452431402	1
0	562	32.432189296063	2
0	565	32.53135596273	0
0	567	32.615894504912	1
0	569	32.625855205111	2
0	572	32.725021871778	0
0	574	32.782922836056	1
0	576	32.882089502723	0
0	578	33.030128077018	1
0	580	33.129294743685	0
0	582	33.612510050629	1
0	584	33.711676717296	0
0	586	33.967365337427	1
0	588	34.066532004094	0
0	590	34.232811982728	1
0	592	34.331978649395	0
0	594	34.598274143412	1
0	596	34.697440810079	0
0	598	34.814386468729	1
0	600	34.868061429621	2
0	603	34.967228096288	0
0	605	35.144822525646	1
0	607	35.213231406483	2
0	610	35.31239807315	0
0	612	35.686207275977	1
0	614	35.785373942644	0
0	616	36.13578802324	1
0	618	36.234954689907	0
0	620	36.708963978818	1
0	622	36.762202068229	2
0	625	36.861368734896	0
0	627	37.133580130395	1
0	629	37.232746797062	0
0	631	37.304565272439	1
0	633	37.403731939106	0
0	635	37.691366936405	1
0	637	37.790533603072	0
0	639	38.329158142836	1
0	641	38.428324809503	0
0	643	38.505314222349	1
0	645	38.559250251976	2
0	648	38.658416918643	0
0	650	38.803725139279	1
0	652	38.902891805946	0
0	654	38.943860382856	1
0	656	39.043027049523	0
0	658	39.047896999941	1
0	660	39.086282493526	2
0	663	39.185449160193	0
0	665	39.372443920609	1
0	667	39.471610587276	0
0	669	39.697864502721	1
0	671	39.797031169388	0
0	673	39.871598024638	1
0	675	39.970764691305	0
0	677	40.29610354782	1
0	679	40.391265881467	2
0	682	40.456963385295	2
0	685	40.503210244238	2
0	688	40.602376910905	0
0	690	40.730379624189	1
0	692	40.753104373681	2
0	695	40.852271040348	0
0	697	41.421252486495	1
0	699	41.520419153162	0
0	701	41.679569839563	1
0	703	41.77873650623	0
0	705	42.132867733592	1
0	707	42.232034400259	0
0	709	42.247809200826	1
0	711	42.346975867493	0
0	713	42.349520877049	1
0	715	42.448687543716	0
0	717	42.469564322194	1
0	719	42.492168302195	2
0	722	42.591334968862	0
0	724	43.537229895934	1
0	726	43.636396562601	0
0	728	43.710413121756	1
0	730	43.782751914267	2
0	732	43.803537312923	2
0	736	43.90270397959	0
0	738	43.96358597646	1
0	740	44.062752643127	0
0	742	44.145225373382	1
0	744	44.244392040049	0
0	746	45.40856003991	1
0	748	45.507726706577	0
0	750	45.684823882556	1
0	752	45.783990549223	0
0	754	46.172889339582	1
0	756	46.198402157774	2
0	759	46.289104267988	2
0	762	46.388270934655	0
0	764	46.702436645182	1
0	766	46.801603311849	0
0	768	47.136885674332	1
0	770	47.236052340999	0
0	772	47.40297757384	1
0	774	47.502144240507	0
0	776	47.641071424432	1
0	778	47.740238091099	0
0	780	47.925968939979	1
0	782	48.011259254524	2
0	785	48.086907930352	2
0	788	48.145416712779	2
0	791	48.244583379446	0
0	793	48.631619921391	1
0	795	48.730786588058	0
0	797	48.750299582795	1
0	799	48.752756861833	2
0	801	48.760333383894	2
0	805	48.859500050561	0
0	807	49.08630203067	1
0	809	49.089882419787	2
0	811	49.143917902245	2
0	815	49.243084568912	0
0	817	49.263690438281	1
0	819	49.362857104948	0
0	821	49.363104288577	1
0	823	49.462270955244	0
0	825	49.667512055718	1
0	827	49.766678722385	0
0	829	49.82604247475	1
0	831	49.910282986385	2
0	834	49.961675652094	2
0	837	50.041658351292	2
0	840	50.095748297795	2
0	843	50.16910317557	2
0	846	50.268269842237	0
0	848	50.394475613545	1
0	850	50.395192310194	2
0	852	50.429887916697	2
0	854	50.47559568748	2
0	859	50.574762354147	0
0	861	50.624812964217	1
0	863	50.723979630884	0
0	865	51.013005054868	1
0	867	51.112171721535	0
0	869	51.161110514517	1
0	871	51.260277181184	0
0	873	51.396614578621	1
0	875	51.447317555497	2
0	878	51.546484222164	0
0	880	51.549258152762	1
0	882	51.587457124373	2
0	885	51.68662379104	0
0	887	51.752135659277	1
0	889	51.851302325944	0
0	891	52.084046713595	1
0	893	52.183213380262	0
0	895	52.495677841103	1
0	897	52.535361035335	2
0	900	52.634527702002	0
0	902	52.684494746159	1
0	904	52.73473273334	2
0	907	52.833899400007	0
0	909	52.908644251366	1
0	911	53.007810918033	0
0	913	53.141264503105	1
0	915	53.240431169772	0
0	917	53.362138458364	1
0	919	53.461305125031	0
0	921	53.566658813629	1
0	923	53.665825480296	0
0	925	53.750094184211	1
0	927	53.814052723517	2
0	929	53.82403211945	2
0	933	53.923198786117	0
0	935	54.018027132173	1
0	937	54.11719379884	0
0	939	54.191720309907	1
0	941	54.290886976574	0
0	943	54.344363815327	1
0	945	54.443530481994	0
0	947	54.508636106994	1
0	949	54.607467128337	2
0	952	54.706633795004	0
0	954	54.713524850955	1
0	956	54.812691517622	0
0	958	55.302215615845	1
0	960	55.401382282512	0
0	962	55.416744264492	1
0	964	55.515910931159	0
0	966	55.724388741613	1
0	968	55.82355540828	0
0	970	55.887047770246	1
0	972	55.986214436913	0
0	974	56.190409913193	1
0	976	56.28957657986	0
0	978	56.765156960484	1
0	980	56.811199993115	2
0	982	56.82361300705	2
0	984	56.839305760405	2
0	989	56.938472427072	0
0	991	56.959657662035	1
0	993	57.058824328702	0
0	995	57.091307221302	1
0	997	57.121743825093	2
0	999	57.151223889747	2
0	1003	57.250390556414	0
0	1005	57.252608090662	1
0	1007	57.351774757329	0
0	1009	57.545299293504	1
0	1011	57.644465960171	0
0	1013	57.995906818253	1
0	1015	58.09507348492	0
0	1017	58.134031413672	1
0	1019	58.233198080339	0
0	1021	58.3404695715	1
0	1023	58.342288585783	2
0	1026	58.44145525245	0
0	1028	58.443079088758	1
0	1030	58.542245755425	0
0	1032	58.577292871281	1
0	1034	58.609144187077	2
0	1037	58.708310853744	0
0	1039	58.731681297632	1
0	1041	58.765411000361	2
0	1044	58.864577667028	0
0	1046	58.902912986071	1
0	1048	59.002079652738	0
0	1050	59.337177051545	1
0	1052	59.349402675444	2
0	1054	59.426599024978	2
0	1058	59.525765691645	0
0	1060	59.587443533168	1
0	1062	59.595393566822	2
0	1065	59.694560233489	0
0	1067	59.836400047557	1
0	1069	59.889930301822	2
0	1072	59.989096968489	0
0	1074	59.994268798678	1
0	1076	60.093435465345	0
0	1078	60.324951737594	1
0	1080	60.424118404261	0
0	1082	60.632114893572	1
0	1084	60.731281560239	0
0	1086	61.068204975766	1
0	1088	61.115718618783	2
0	1091	61.209894515679	2
0	1094	61.309061182346	0
0	1096	61.417464640322	1
0	1098	61.516631306989	0
0	1100	61.561543181497	1
0	1102	61.660709848164	0
0	1104	61.863301626468	1
0	1106	61.962468293135	0
0	1108	62.026717362331	1
0	1110	62.125884028998	0
0	1112	62.688746132729	1
0	1114	62.787912799396	0
0	1116	62.804413428933	1
0	1118	62.9035800956	0
0	1120	62.925585053094	1
0	1122	62.936830782675	2
0	1125	63.026058225524	2
0	1128	63.125224892191	0
0	1130	63.125232056387	1
0	1132	63.150936071899	2
0	1135	63.250102738566	0
0	1137	63.251902604148	1
0	1139	63.351069270815	0
0	1141	63.865859905178	1
0	1143	63.965026571845	0
0	1145	64.132800153935	1
0	1147	64.231966820602	0
0	1149	64.301265622377	1
0	1151	64.36338301799	2
0	1154	64.462549684657	0
0	1156	64.487143506091	1
0	1158	64.586310172758	0
0	1160	64.667101519254	1
0	1162	64.766268185921	0
0	1164	64.945566366725	1
0	1166	65.014154175319	2
0	1169	65.113320841986	0
0	1171	65.176850246397	1
0	1173	65.276016913064	0
0	1175	65.39665940594	1
0	1177	65.456997285229	2
0	1180	65.515869989494	2
0	1183	65.615036656161	0
0	1185	65.948476792544	1
0	1187	66.047643459211	0
0	1189	66.157388456313	1
0	1191	66.241233313071	2
0	1194	66.27827447531	2
0	1197	66.377441141977	0
0	1199	66.548785093869	1
0	1201	66.647951760536	0
0	1203	67.032722842687	1
0	1205	67.121254381945	2
0	1208	67.220421048612	0
0	1210	67.660129284421	1
0	1212	67.689114266715	2
0	1214	67.737822441324	2
0	1216	67.73784033186	2
0	1221	67.837006998527	0
0	1223	68.026977182965	1
0	1225	68.126143849632	0
0	1227	68.562610683434	1
0	1229	68.661777350101	0
0	1231	69.049734488686	1
0	1233	69.101750045283	2
0	1236	69.20091671195	0
0	1238	69.482346484028	1
0	1240	69.581513150695	0
0	1242	70.03833486321	1
0	1244	70.098060488466	2
0	1247	70.151278899966	2
0	1250	70.250445566633	0
0	1252	70.271358454075	1
0	1254	70.370525120742	0
0	1256	70.596629828821	1
0	1258	70.695796495488	0
0	1260	70.892781403873	1
0	1262	70.961754801453	2
0	1265	71.06092146812	0
0	1267	71.077889977378	1
0	1269	71.177056644045	0
0	1271	71.426474336437	1
0	1273	71.525641003104	0
0	1275	71.53738555594	1
0	1277	71.576689838289	2
0	1280	71.675856504956	0
0	1282	72.282716380459	1
0	1284	72.381883047126	0
0	1286	72.466231751421	1
0	1288	72.563374749379	2
0	1291	72.662541416046	0
0	1293	72.780876101393	1
0	1295	72.88004276806	0
0	1297	72.929356758835	1
0	1299	73.028523425502	0
0	1301	73.038692179961	1
0	1303	73.137858846628	0
0	1305	73.211578290825	1
0	1307	73.310744957492	0
0	1309	73.375388235524	1
0	1311	73.474554902191	0
0	1313	73.536986853644	1
0	1315	73.636153520311	0
0	1317	73.776430373291	1
0	1319	73.803939602823	2
0	1322	73.90310626949	0
0	1324	73.914278217775	1
0	1326	73.922948985254	2
0	1328	73.933627186241	2
0	1332	74.032793852908	0
0	1334	74.858735415809	1
0	1336	74.957902082476	0
0	1338	75.049270939949	1
0	1340	75.148437606616	0
0	1342	75.150727516001	1
0	1344	75.249894182668	0
0	1346	75.444930554106	1
0	1348	75.544097220773	0
0	1350	75.722009788414	1
0	1352	75.821176455081	0
0	1354	75.881803650035	1
0	1356	75.980970316702	0
0	1358	76.03752199082	1
0	1360	76.136688657487	0
0	1362	76.414496710374	1
0	1364	76.513663377041	0
0	1366	76.718814600913	1
0	1368	76.81798126758	0
0	1370	77.098130615979	1
0	1372	77.197297282646	0
0	1374	77.317751123191	1
0	1376	77.372136427012	2
0	1379	77.471303093679	0
0	1381	77.480651951409	1
0	1383	77.579818618076	0
0	1385	77.691198650799	1
0	1387	77.790365317466	0
0	1389	77.894968096532	1
0	1391	77.924454462648	2
0	1393	77.967195016909	2
0	1397	78.066361683576	0
0	1399	78.689982405292	1
0	1401	78.789149071959	0
0	1403	78.843730791218	1
0	1405	78.872372331673	2
0	1408	78.97153899834	0
0	1410	79.218167485768	1
0	1412	79.317334152435	0
0	1414	79.615868553317	1
0	1416	79.680987363569	2
0	1419	79.731640151088	2
0	1422	79.830806817755	0
0	1424	80.071399148144	1
0	1426	80.119402018682	2
0	1429	80.218568685349	0
0	1431	80.447919419411	1
0	1433	80.547086086078	0
0	1435	81.235369489602	1
0	1437	81.334536156269	0
0	1439	81.38978700136	1
0	1441	81.488953668027	0
0	1443	81.981345541117	1
0	1445	82.080512207784	0
0	1447	82.362244909008	1
0	1449	82.369670537373	2
0	1452	82.46883720404	0
0	1454	82.529899484085	1
0	1456	82.629066150752	0
0	1458	82.771197302013	1
0	1460	82.87036396868	0
0	1462	82.973179487376	1
0	1464	83.072346154043	0
0	1466	83.203955129095	1
0	1468	83.277625862068	2
0	1471	83.320060656708	2
0	1473	83.338021071227	2
0	1476	83.409575907168	2
0	1480	83.508742573835	0
0	1482	83.510300800799	1
0	1484	83.547101582425	2
0	1487	83.646268249092	0
0	1489	83.889924755834	1
0	1491	83.989091422501	0
0	1493	84.256653857131	1
0	1495	84.268865891744	2
0	1498	84.367238890762	2
0	1501	84.466405557429	0
0	1503	84.522358027277	1
0	1505	84.621524693944	0
0	1507	84.720383409707	1
0	1509	84.819550076374	0
0	1511	85.042550919286	1
0	1513	85.141717585953	0
0	1515	85.280374076154	1
0	1517	85.330214862734	2
0	1520	85.410118899511	2
0	1523	85.509285566178	0
0	1525	85.882936295621	1
0	1527	85.982102962288	0
0	1529	86.48193578917	1
0	1531	86.562839402548	2
0	1534	86.662006069215	0
0	1536	86.669275918673	1
0	1538	86.76844258534	0
0	1540	86.995199734681	1
0	1542	87.094366401348	0
0	1544	87.291914631703	1
0	1546	87.343679809214	2
0	1548	87.384148703935	2
0	1552	87.483315370602	0
0	1554	87.626681549806	1
0	1556	87.725848216473	0
0	1558	87.971143443605	1
0	1560	87.982498902491	2
0	1562	88.00325225721	2
0	1564	88.047860477351	2
0	1569	88.147027144018	0
0	1571	88.533236519871	1
0	1573	88.551956779942	2
0	1576	88.651123446609	0
0	1578	88.762597818771	1
0	1580	88.807381965572	2
0	1583	88.906548632239	0
0	1585	88.989067368663	1
0	1587	89.08823403533	0
0	1589	89.891420347966	1
0	1591	89.990587014633	0
0	1593	90.547128942562	1
0	1595	90.646119686588	2
0	1598	90.745286353255	0
0	1600	90.996348414559	1
0	1602	91.095515081226	0
0	1604	91.116889346512	1
0	1606	91.129000116061	2
0	1608	91.165418652522	2
0	1612	91.264585319189	0
0	1614	91.542238822457	1
0	1616	91.641405489124	0
0	1618	91.647978829514	1
0	1620	91.747145496181	0
0	1622	91.799896423162	1
0	1624	91.899063089829	0
0	1626	92.06907125075	1
0	1628	92.168237917417	0
0	1630	92.194888765724	1
0	1632	92.294055432391	0
0	1634	92.298674092608	1
0	1636	92.32123183874	2
0	1639	92.40092460631	2
0	1642	92.500091272977	0
0	1644	92.570612899257	1
0	1646	92.584381005058	2
0	1649	92.683547671725	0
0	1651	93.064354259887	1
0	1653	93.163520926554	0
0	1655	93.272511006561	1
0	1657	93.371677673228	0
0	1659	93.55630467093	1
0	1661	93.628409516337	2
0	1664	93.727576183004	0
0	1666	93.792542844067	1
0	1668	93.891709510734	0
0	1670	93.956036790498	1
0	1672	93.972631592261	2
0	1675	94.071798258928	0
0	1677	94.131040853257	1
0	1679	94.230207519924	0
0	1681	94.672604623692	1
0	1683	94.742115201797	2
0	1686	94.841281868464	0
0	1688	95.060218277433	1
0	1690	95.1593849441	0
0	1692	95.16981776491	1
0	1694	95.268984431577	0
0	1696	96.284092845967	1
0	1698	96.383259512634	0
0	1700	96.69886970527	1
0	1702	96.788487029468	2
0	1705	96.887653696135	0
0	1707	96.947176961628	1
0	1709	96.948658103596	2
0	1712	97.047824770263	0
0	1714	97.129676450393	1
0	1716	97.163708629972	2
0	1719	97.262875296639	0
0	1721	97.302930378436	1
0	1723	97.318499687555	2
0	1725	97.384194825862	2
0	1729	97.483361492529	0
0	1731	97.518632478671	1
0	1733	97.617799145338	0
0	1735	97.788404317029	1
0	1737	97.887570983696	0
0	1739	98.072141820526	1
0	1741	98.171308487193	0
0	1743	98.43940257919	1
0	1745	98.440158097494	2
0	1748	98.539324764161	0
0	1750	98.856622197891	1
0	1752	98.955788864558	0
0	1754	99.530358744837	1
0	1756	99.629525411504	0
0	1758	99.820959482804	1
0	1760	99.920126149471	0
0	1762	99.921613175536	1
0	1764	99.933210993341	2
0	1766	100.011272431036	2
0	1770	100.042322742141	2
0	1772	100.076547246989	2
0	1776	100.175713913656	0
0	1778	100.275546858477	1
0	1780	100.332936470578	2
0	1783	100.40728000939	2
0	1786	100.474126994463	2
0	1789	100.57329366113	0
0	1791	100.619250646816	1
0	1793	100.696523903046	2
0	1796	100.795690569713	0
0	1798	100.837616335382	1
0	1800	100.936783002049	0
0	1802	100.978560148818	1
0	1804	101.069158579733	2
0	1807	101.1683252464	0
0	1809	101.554898041188	1
0	1811	101.611163823578	2
0	1814	101.710330490245	0
0	1816	101.868666861957	1
0	1818	101.967833528624	0
0	1820	102.032118596052	1
0	1822	102.131285262719	0
0	1824	102.354030144313	1
0	1826	102.45319681098	0
0	1828	102.573803434598	1
0	1830	102.613227055987	2
0	1832	102.626686926757	2
0	1836	102.725853593424	0
0	1838	102.850258982146	1
0	1840	102.949425648813	0
0	1842	102.951114159011	1
0	1844	103.032536665411	2
0	1847	103.131703332078	0
0	1849	103.249651492748	1
0	1851	103.326151281991	2
0	1854	103.425317948658	0
0	1856	103.593392539986	1
0	1858	103.692559206653	0
0	1860	103.715322891289	1
0	1862	103.814489557956	0
0	1864	103.998254307116	1
0	1866	104.097420973783	0
0	1868	104.454094235671	1
0	1870	104.553260902338	0
0	1872	104.724483437645	1
0	1874	104.753445176617	2
0	1876	104.810620229204	2
0	1880	104.909786895871	0
0	1882	104.951985048241	1
0	1884	105.051151714908	0
0	1886	105.248028086	1
0	1888	105.252321127791	2
0	1891	105.351487794458	0
0	1893	105.401350957138	1
0	1895	105.500517623805	0
0	1897	105.712740679869	1
0	1899	105.811907346536	0
0	1901	106.190458560851	1
0	1903	106.289625227518	0
0	1905	106.495900261739	1
0	1907	106.595066928406	0
0	1909	107.042630996112	1
0	1911	107.141797662779	0
0	1913	107.199393086573	1
0	1915	107.229226002986	2
0	1917	107.29747542647	2
0	1921	107.377453554364	2
0	1924	107.428019374393	2
0	1927	107.52718604106	0
0	1929	107.992659590374	1
0	1931	108.091826257041	0
0	1933	108.387675066889	1
0	1935	108.486841733556	0
0	1937	108.600773582036	1
0	1939	108.699940248703	0
0	1941	108.920594401631	1
0	1943	108.950400514158	2
0	1946	109.049567180825	0
0	1948	109.393976712315	1
0	1950	109.493143378982	0
0	1952	110.080556655317	1
0	1954	110.179723321984	0
0	1956	110.220159788907	1
0	1958	110.263964728365	2
0	1961	110.363131395032	0
0	1963	110.856179362037	1
0	1965	110.955346028704	0
0	1967	111.019881650171	1
0	1969	111.02632027146	2
0	1971	111.114854606149	2
0	1975	111.214021272816	0
0	1977	111.251428106811	1
0	1979	111.350594773478	0
0	1981	111.503273753312	1
0	1983	111.602440419979	0
0	1985	111.66579781528	1
0	1987	111.764964481947	0
0	1989	112.06893329038	1
0	1991	112.168099957047	0
0	1993	112.214057119318	1
0	1995	112.313223785985	0
0	1997	113.174010910478	1
0	1999	113.18470305688	2
0	2002	113.283869723547	0
0	2004	113.315597603282	1
0	2006	113.383125432098	2
0	2009	113.482292098765	0
0	2011	113.643986657293	1
0	2013	113.656332131353	2
0	2015	113.718026641943	2
0	2019	113.81719330861	0
0	2021	114.356582202145	1
0	2023	114.420971241986	2
0	2026	114.520137908653	0
0	2028	114.546500709807	1
0	2030	114.645667376474	0
0	2032	114.779988256883	1
0	2034	114.87915492355	0
0	2036	115.141796413423	1
0	2038	115.24096308009	0
0	2040	115.336026300138	1
0	2042	115.435192966805	0
0	2044	115.881220538779	1
0	2046	115.890855659471	2
0	2048	115.95154037334	2
0	2052	116.050707040007	0
0	2054	116.293362029802	1
0	2056	116.372128084783	2
0	2059	116.47129475145	0
0	2061	116.584544332492	1
0	2063	116.584914037742	2
0	2066	116.684080704409	0
0	2068	116.714421961824	1
0	2070	116.813588628491	0
0	2072	116.966745671748	1
0	2074	116.992334587379	2
0	2077	117.08117075807	2
0	2080	117.095055669034	2
0	2082	117.116912196341	2
0	2086	117.216078863008	0
0	2088	117.239502629898	1
0	2090	117.240186218596	2
0	2093	117.339352885263	0
0	2095	117.540924470947	1
0	2097	117.61907369928	2
0	2100	117.676437416616	2
0	2103	117.775604083283	0
0	2105	117.955253670881	1
0	2107	117.973480165976	2
0	2110	118.072646832643	0
0	2112	118.149354691287	1
0	2114	118.156952639431	2
0	2117	118.256119306098	0
0	2119	118.337944704313	1
0	2121	118.43711137098	0
0	2123	118.541928028117	1
0	2125	118.641094694784	0
0	2127	118.924592113502	1
0	2129	119.023758780169	0
0	2131	119.149428275608	1
0	2133	119.176631822259	2
0	2136	119.275798488926	0
0	2138	119.293474999757	1
0	2140	119.392641666424	0
0	2142	119.444011696749	1
0	2144	119.484332550485	2
0	2147	119.560547381422	2
0	2150	119.613924957919	2
0	2153	119.713091624586	0
0	2155	119.773560088125	1
0	2157	119.854586672337	2
0	2160	119.953753339004	0
0	2162	120.551057198519	1
0	2164	120.649016831717	2
0	2167	120.748183498384	0
0	2169	121.04839022088	1
0	2171	121.147556887547	0
0	2173	121.272330704963	1
0	2175	121.37149737163	0
0	2177	121.534006713596	1
0	2179	121.633173380263	0
0	2181	122.879979290088	1
0	2183	122.979145956755	0
0	2185	123.017507417614	1
0	2187	123.031531152339	2
0	2190	123.130697819006	0
0	2192	123.353395997599	1
0	2194	123.452562664266	0
0	2196	123.728206613873	1
0	2198	123.753732613674	2
0	2200	123.763601610003	2
0	2202	123.804400489253	2
0	2207	123.90356715592	0
0	2209	124.066312209153	1
0	2211	124.16547887582	0
0	2213	124.275634531456	1
0	2215	124.331918315359	2
0	2218	124.390429259689	2
0	2221	124.489595926356	0
0	2223	124.578523369719	1
0	2225	124.659293616358	2
0	2228	124.758460283025	0
0	2230	125.327304071219	1
0	2232	125.426470737886	0
0	2234	125.61612088966	1
0	2236	125.715287556327	0
0	2238	125.867603109301	1
0	2240	125.90237699793	2
0	2243	126.001543664597	0
0	2245	126.09877213167	1
0	2247	126.197938798337	0
0	2249	126.267558170436	1
0	2251	126.366724837103	0
0	2253	126.87115900798	1
0	2255	126.970325674647	0
0	2257	126.989577640551	1
0	2259	127.088744307218	0
0	2261	127.107734929473	1
0	2263	127.20690159614	0
0	2265	127.251558512623	1
0	2267	127.35072517929	0
0	2269	127.403744054699	1
0	2271	127.479587558157	2
0	2274	127.578754224824	0
0	2276	127.629283494774	1
0	2278	127.728450161441	0
0	2280	127.911440052804	1
0	2282	127.935573833103	2
0	2285	128.03474049977	0
0	2287	128.165421423153	1
0	2289	128.26458808982	0
0	2291	128.384918434976	1
0	2293	128.412009359205	2
0	2296	128.511176025872	0
0	2298	128.964096751132	1
0	2300	129.063263417799	0
0	2302	129.11076699658	1
0	2304	129.209933663247	0
0	2306	129.339867498662	1
0	2308	129.439034165329	0
0	2310	129.448307320353	1
0	2312	129.483870391969	2
0	2315	129.583037058636	0
0	2317	129.64730458851	1
0	2319	129.746471255177	0
0	2321	129.753667686781	1
0	2323	129.852834353448	0
0	2325	129.926453680677	1
0	2327	129.944115532434	2
0	2330	130.043282199101	0
0	2332	130.170031965776	1
0	2334	130.250478460986	2
0	2337	130.349645127653	0
0	2339	130.431172726202	1
0	2341	130.492776267632	2
0	2344	130.591942934299	0
0	2346	130.979666922223	1
0	2348	130.991928978907	2
0	2351	131.091095645574	0
0	2353	131.119718257585	1
0	2355	131.218884924252	0
0	2357	131.419245892312	1
0	2359	131.450694849538	2
0	2362	131.549861516205	0
0	2364	132.203038689847	1
0	2366	132.238613906246	2
0	2368	132.290037951074	2
0	2371	132.326868314509	2
0	2374	132.357254636919	2
0	2378	132.456421303586	0
0	2380	132.520947691339	1
0	2382	132.620114358006	0
0	2384	132.768652172693	1
0	2386	132.841402112596	2
0	2389	132.901528248388	2
0	2392	133.000694915055	0
0	2394	133.029315439115	1
0	2396	133.119510540879	2
0	2399	133.189666846326	2
0	2402	133.277867863588	2
0	2405	133.377034530255	0
0	2407	134.394882397926	1
0	2409	134.494049064593	0
0	2411	135.240614404119	1
0	2413	135.331982085881	2
0	2416	135.357440895481	2
0	2419	135.456607562148	0
0	2421	135.466027270832	1
0	2423	135.565193937499	0
0	2425	135.740665192893	1
0	2427	135.83983185956	0
0	2429	136.168828211597	1
0	2431	136.242253088992	2
0	2434	136.341419755659	0
0	2436	136.354463301591	1