version 3
run PureAlohaExperiment-35-20260306-12:10:22-8840
attr configname PureAlohaExperiment
attr datetime 20260306-12:10:22
attr datetimef 20260306-121022
attr experiment PureAlohaExperiment
attr inifile omnetpp.ini
attr iterationvars "$numHosts=20, $iaMean=4"
attr iterationvarsd numHosts=20/iaMean=4
attr iterationvarsf numHosts=20,iaMean=4-
attr measurement "$numHosts=20, $iaMean=4"
attr network Aloha
attr processid 8840
attr repetition 1
attr replication #1
attr resultdir results
attr runnumber 35
attr seedset 35
itervar iaMean 4
itervar numHosts 20
config description "Channel utilization in the function of packet generation frequency"
config repeat 2
config sim-time-limit 90min
config Aloha.numHosts 20
config Aloha.host[*].iaTime exponential(4s)
config network Aloha
config Aloha.numHosts 20
config Aloha.slotTime 0s
config Aloha.txRate 9.6kbps
config Aloha.host[*].pkLenBits 952b
config **.x "uniform(0m, 1000m)"
config **.y "uniform(0m, 1000m)"
config **.animationHoldTimeOnCollision 0s
config **.idleAnimationSpeed 1
config **.transmissionEdgeAnimationSpeed 1e-6
config **.midTransmissionAnimationSpeed 1e-1

vector 0 Aloha.server serverChannelState:vector ETV
attr enum IDLE=0,TRANSMISSION=1,COLLISION=2
attr recordingmode vector
attr source channelState
attr title "Channel state"
vector 1 Aloha.host[0] radioState:vector ETV
attr enum IDLE=0,TRANSMIT=1
attr recordingmode vector
attr source state
attr title "Radio state"
vector 2 Aloha.host[1] radioState:vector ETV
attr enum IDLE=0,TRANSMIT=1
attr recordingmode vector
attr source state
attr title "Radio state"
vector 3 Aloha.host[2] radioState:vector ETV
attr enum IDLE=0,TRANSMIT=1
attr recordingmode vector
attr source state
attr title "Radio state"
vector 4 Aloha.host[3] radioState:vector ETV
attr enum IDLE=0,TRANSMIT=1
attr recordingmode vector
attr source state
attr title "Radio state"
vector 5 Aloha.host[4] radioState:vector ETV
attr enum IDLE=0,TRANSMIT=1
attr recordingmode vector
attr source state
attr title "Radio state"
vector 6 Aloha.host[5] radioState:vector ETV
attr enum IDLE=0,TRANSMIT=1
attr recordingmode vector
attr source state
attr title "Radio state"
vector 7 Aloha.host[6] radioState:vector ETV
attr enum IDLE=0,TRANSMIT=1
attr recordingmode vector
attr source state
attr title "Radio state"
vector 8 Aloha.host[7] radioState:vector ETV
attr enum IDLE=0,TRANSMIT=1
attr recordingmode vector
attr source state
attr title "Radio state"
vector 9 Aloha.host[8] radioState:vector ETV
attr enum IDLE=0,TRANSMIT=1
attr recordingmode vector
attr source state
attr title "Radio state"
vector 10 Aloha.host[9] radioState:vector ETV
attr enum IDLE=0,TRANSMIT=1
attr recordingmode vector
attr source state
attr title "Radio state"
vector 11 Aloha.host[10] radioState:vector ETV
attr enum IDLE=0,TRANSMIT=1
attr recordingmode vector
attr source state
attr title "Radio state"
vector 12 Aloha.host[11] radioState:vector ETV
attr enum IDLE=0,TRANSMIT=1
attr recordingmode vector
attr source state
attr title "Radio state"
vector 13 Aloha.host[12] radioState:vector ETV
attr enum IDLE=0,TRANSMIT=1
attr recordingmode vector
attr source state
attr title "Radio state"
vector 14 Aloha.host[13] radioState:vector ETV
attr enum IDLE=0,TRANSMIT=1
attr recordingmode vector
attr source state
attr title "Radio state"
vector 15 Aloha.host[14] radioState:vector ETV
attr enum IDLE=0,TRANSMIT=1
attr recordingmode vector
attr source state
attr title "Radio state"
vector 16 Aloha.host[15] radioState:vector ETV
attr enum IDLE=0,TRANSMIT=1
attr recordingmode vector
attr source state
attr title "Radio state"
vector 17 Aloha.host[16] radioState:vector ETV
attr enum IDLE=0,TRANSMIT=1
attr recordingmode vector
attr source state
attr title "Radio state"
vector 18 Aloha.host[17] radioState:vector ETV
attr enum IDLE=0,TRANSMIT=1
attr recordingmode vector
attr source state
attr title "Radio state"
vector 19 Aloha.host[18] radioState:vector ETV
attr enum IDLE=0,TRANSMIT=1
attr recordingmode vector
attr source state
attr title "Radio state"
vector 20 Aloha.host[19] radioState:vector ETV
attr enum IDLE=0,TRANSMIT=1
attr recordingmode vector
attr source state
attr title "Radio state"
vector 21 Aloha.server channelUtilizationVector:vector ETV
attr interpolationmode linear
attr recordingmode vector
attr source timeavg(receive)
attr title "channel utilization evolution"
0	0	0	0
0	2	0.044396300438	1
0	4	0.143562967105	0
0	6	0.28976839654	1
0	8	0.352760745011	2
0	11	0.451927411678	0
0	13	0.940159485475	1
0	15	1.039326152142	0
0	17	1.304514938059	1
0	19	1.345566934972	2
0	22	1.444733601639	0
0	24	1.651324113385	1
0	26	1.750490780052	0
0	28	2.005208119272	1
0	30	2.044286195187	2
0	33	2.143452861854	0
0	35	2.168547772085	1
0	37	2.223885194711	2
0	40	2.323051861378	0
0	42	2.434932958127	1
0	44	2.534099624794	0
0	46	2.900949512597	1
0	48	2.945062929242	2
0	50	2.952970170077	2
0	54	3.050799674636	2
0	57	3.149966341303	0
0	59	3.221886009423	1
0	61	3.32105267609	0
0	63	3.813561275213	1
0	65	3.91272794188	0
0	67	3.91470461723	1
0	69	4.013871283897	0
0	71	4.248281891013	1
0	73	4.313041080195	2
0	76	4.412207746862	0
0	78	4.465795600364	1
0	80	4.564962267031	0
0	82	4.851934425476	1
0	84	4.951101092143	0
0	86	5.776224733323	1
0	88	5.79261204112	2
0	90	5.835941149563	2
0	92	5.841483541597	2
0	97	5.940650208264	0
0	99	6.077161857391	1
0	101	6.176328524058	0
0	103	6.450896783738	1
0	105	6.550063450405	0
0	107	6.774774008139	1
0	109	6.861670030315	2
0	112	6.887176235904	2
0	114	6.956620633111	2
0	118	7.055787299778	0
0	120	7.117945269753	1
0	122	7.21711193642	0
0	124	7.587284884324	1
0	126	7.686451550991	0
0	128	8.134329752175	1
0	130	8.230937325055	2
0	133	8.291979092765	2
0	135	8.308885807637	2
0	139	8.408052474304	0
0	141	8.987302965979	1
0	143	9.050619746351	2
0	146	9.149786413018	0
0	148	9.281632144452	1
0	150	9.380798811119	0
0	152	9.403775386496	1
0	154	9.442877668808	2
0	156	9.465740082048	2
0	160	9.564906748715	0
0	162	9.856619137329	1
0	164	9.955785803996	0
0	166	10.957211188767	1
0	168	11.056377855434	0
0	170	11.144614559153	1
0	172	11.210579408308	2
0	175	11.276862210252	2
0	178	11.35944746506	2
0	181	11.458614131727	0
0	183	11.494784695489	1
0	185	11.593951362156	0
0	187	11.615119257525	1
0	189	11.714285924192	0
0	191	12.224893740477	1
0	193	12.226266733363	2
0	195	12.284656135678	2
0	199	12.383822802345	0
0	201	12.852251317117	1
0	203	12.951417983784	0
0	205	12.95249707599	1
0	207	12.961181718103	2
0	209	12.998720966624	2
0	213	13.097887633291	0
0	215	13.776358002157	1
0	217	13.875524668824	0
0	219	13.936748380006	1
0	221	13.964009510189	2
0	224	14.063176176856	0
0	226	14.162635882202	1
0	228	14.180298104802	2
0	231	14.272793353082	2
0	234	14.371960019749	0
0	236	14.815053153921	1
0	238	14.886719378662	2
0	241	14.985886045329	0
0	243	15.291388233059	1
0	245	15.390554899726	0
0	247	15.407380320728	1
0	249	15.503307654523	2
0	252	15.60247432119	0
0	254	15.642803533367	1
0	256	15.741970200034	0
0	258	15.85312683381	1
0	260	15.883944253928	2
0	262	15.934232029571	2
0	266	16.033398696238	0
0	268	16.093329253285	1
0	270	16.192495919952	0
0	272	16.352168161402	1
0	274	16.451334828069	0
0	276	16.512212649267	1
0	278	16.611379315934	0
0	280	16.752322335997	1
0	282	16.851489002664	0
0	284	17.064642909441	1
0	286	17.095090501153	2
0	289	17.19425716782	0
0	291	17.550517576927	1
0	293	17.649684243594	0
0	295	17.701538815273	1
0	297	17.712204027832	2
0	300	17.811370694499	0
0	302	18.353614627618	1
0	304	18.427773360676	2
0	307	18.526940027343	0
0	309	18.763069096634	1
0	311	18.862235763301	0
0	313	18.884315832363	1
0	315	18.935183277814	2
0	318	19.034349944481	0
0	320	19.046703006466	1
0	322	19.145869673133	0
0	324	19.16152626657	1
0	326	19.227803564924	2
0	329	19.326970231591	0
0	331	19.586030705463	1
0	333	19.597630464663	2
0	335	19.651184129151	2
0	339	19.750350795818	0
0	341	19.983821815643	1
0	343	20.08298848231	0
0	345	20.214417228858	1
0	347	20.313583895525	0
0	349	20.358692840276	1
0	351	20.380212622084	2
0	354	20.479379288751	0
0	356	20.645248524828	1
0	358	20.744415191495	0
0	360	21.209079908056	1
0	362	21.308246574723	0
0	364	21.320109504001	1
0	366	21.419276170668	0
0	368	21.507507658338	1
0	370	21.533146668863	2
0	373	21.63231333553	0
0	375	21.851773109939	1
0	377	21.934970998309	2
0	380	22.034137664976	0
0	382	22.058789407369	1
0	384	22.117242942742	2
0	387	22.200064428273	2
0	390	22.256496592321	2
0	393	22.310027971369	2
0	395	22.319331648272	2
0	399	22.418498314939	0
0	401	22.893466112346	1
0	403	22.992632779013	0
0	405	23.296190671386	1
0	407	23.310362420915	2
0	410	23.409529087582	0
0	412	23.422332371727	1
0	414	23.521499038394	0
0	416	23.965496075372	1
0	418	24.064662742039	0
0	420	24.29553166781	1
0	422	24.394698334477	0
0	424	24.508257610374	1
0	426	24.607424277041	0
0	428	24.72131596503	1
0	430	24.820482631697	0
0	432	24.827568538	1
0	434	24.926735204667	0
0	436	25.18707534844	1
0	438	25.286242015107	0
0	440	25.404028126636	1
0	442	25.503194793303	0
0	444	26.177548348019	1
0	446	26.276715014686	0
0	448	26.351893871758	1
0	450	26.451060538425	0
0	452	26.527104517857	1
0	454	26.597211498957	2
0	457	26.696378165624	0
0	459	26.715585514091	1
0	461	26.755428194856	2
0	464	26.854594861523	0
0	466	27.060663382921	1
0	468	27.101629285777	2
0	470	27.148836856966	2
0	472	27.155969647024	2
0	477	27.255136313691	0
0	479	27.255347543652	1
0	481	27.308861521403	2
0	484	27.40802818807	0
0	486	27.487604713118	1
0	488	27.586771379785	0
0	490	27.592362325761	1
0	492	27.691528992428	0
0	494	28.081440158571	1
0	496	28.150325515321	2
0	499	28.249492181988	0
0	501	28.364174420489	1
0	503	28.463341087156	0
0	505	28.884896169711	1
0	507	28.984062836378	0
0	509	28.988180408092	1
0	511	29.045511805214	2
0	514	29.144678471881	0
0	516	30.101064264938	1
0	518	30.200230931605	0
0	520	30.355067535861	1
0	522	30.454234202528	0
0	524	30.585404755326	1
0	526	30.636072689994	2
0	528	30.666951051502	2
0	532	30.744447371989	2
0	535	30.843614038656	0
0	537	31.066789577337	1
0	539	31.165956244004	0
0	541	31.247195306326	1
0	543	31.346361972993	0
0	545	31.721017937644	1
0	547	31.820184604311	0
0	549	32.014919393372	1
0	551	32.114086060039	0
0	553	32.206818289731	1
0	555	32.305984956398	0
0	557	32.363401358314	1
0	559	32.462568024981	0
0	561	32.621688608344	1
0	563	32.720855275011	0
0	565	32.936822603881	1
0	567	33.035989270548	0
0	569	33.072528013872	1
0	571	33.099837689858	2
0	573	33.133433162075	2
0	577	33.232599828742	0
0	579	33.261111703457	1
0	581	33.360278370124	0
0	583	33.393528872844	1
0	585	33.492695539511	0
0	587	33.738039081332	1
0	589	33.837205747999	0
0	591	34.238937741841	1
0	593	34.281367066883	2
0	596	34.38053373355	0
0	598	34.400994008797	1
0	600	34.484278710889	2
0	603	34.583445377556	0
0	605	34.620646133704	1
0	607	34.682773345433	2
0	610	34.7819400121	0
0	612	34.85676659851	1
0	614	34.955933265177	0
0	616	34.967509917908	1
0	618	35.066676584575	0
0	620	35.241168466284	1
0	622	35.340007802203	2
0	625	35.43917446887	0
0	627	35.485151570616	1
0	629	35.584318237283	0
0	631	35.920885774438	1
0	633	36.020052441105	0
0	635	36.346373510316	1
0	637	36.379371373193	2
0	640	36.47853803986	0
0	642	36.517010031806	1
0	644	36.616176698473	0
0	646	36.769802832246	1
0	648	36.868969498913	0
0	650	37.027625011447	1
0	652	37.126791678114	0
0	654	37.350000810064	1
0	656	37.396443963242	2
0	659	37.495610629909	0
0	661	37.564523458702	1
0	663	37.663690125369	0
0	665	37.762830222411	1
0	667	37.861996889078	0
0	669	38.553071207279	1
0	671	38.652237873946	0
0	673	38.684522803621	1
0	675	38.783689470288	0
0	677	38.857039394784	1
0	679	38.956206061451	0
0	681	38.999951100504	1
0	683	39.010606110091	2
0	686	39.109772776758	0
0	688	39.160025876923	1
0	690	39.237593021178	2
0	693	39.336759687845	0
0	695	40.806567786383	1
0	697	40.90573445305	0
0	699	41.194787009382	1
0	701	41.293953676049	0
0	703	41.550955023784	1
0	705	41.623652748845	2
0	708	41.722819415512	0
0	710	41.747207702684	1
0	712	41.846374369351	0
0	714	42.136202652777	1
0	716	42.235369319444	0
0	718	42.69779855167	1
0	720	42.796965218337	0
0	722	43.109491503557	1
0	724	43.208658170224	0
0	726	43.255838564873	1
0	728	43.35500523154	0
0	730	43.656643255744	1
0	732	43.755809922411	0
0	734	44.05307495383	1
0	736	44.152241620497	0
0	738	44.358382969722	1
0	740	44.393641964035	2
0	742	44.400909453665	2
0	746	44.500076120332	0
0	748	44.537663212917	1
0	750	44.582102618304	2
0	753	44.681269284971	0
0	755	44.73642437418	1
0	757	44.835591040847	0
0	759	45.224217168663	1
0	761	45.32338383533	0
0	763	45.405557756313	1
0	765	45.50472442298	0
0	767	45.803341845456	1
0	769	45.902508512123	0
0	771	46.003733866599	1
0	773	46.085382481971	2
0	776	46.184549148638	0
0	778	46.839482807401	1
0	780	46.910367383687	2
0	783	47.009534050354	0
0	785	47.39250346423	1
0	787	47.491670130897	0
0	789	47.700680076371	1
0	791	47.799846743038	0
0	793	47.892246626826	1
0	795	47.991413293493	0
0	797	48.003971137864	1
0	799	48.103137804531	0
0	801	48.189023610737	1
0	803	48.288190277404	0
0	805	48.359427705046	1
0	807	48.458594371713	0
0	809	48.464078652412	1
0	811	48.500377987311	2
0	813	48.530528514624	2
0	815	48.535372767155	2
0	820	48.634539433822	0
0	822	48.690544827173	1
0	824	48.733029367443	2
0	827	48.83219603411	0
0	829	48.981252650473	1
0	831	49.047695350154	2
0	834	49.146862016821	0
0	836	49.521041688028	1
0	838	49.567158079886	2
0	841	49.666324746553	0
0	843	49.695232719482	1
0	845	49.794399386149	0
0	847	49.982973356517	1
0	849	50.082140023184	0
0	851	50.151504926261	1
0	853	50.250671592928	0
0	855	50.283065740462	1
0	857	50.307025451545	2
0	859	50.307802472007	2
0	863	50.406969138674	0
0	865	50.828893465062	1
0	867	50.881387404554	2
0	869	50.925981701309	2
0	873	51.025148367976	0
0	875	51.183528262151	1
0	877	51.282694928818	0
0	879	51.366599666082	1
0	881	51.465766332749	0
0	883	51.479730360419	1
0	885	51.514058133045	2
0	887	51.528720575556	2
0	891	51.627887242223	0
0	893	52.000101616825	1
0	895	52.067224509489	2
0	898	52.166391176156	0
0	900	52.181039390772	1
0	902	52.280206057439	0
0	904	52.400572063436	1
0	906	52.499738730103	0
0	908	52.55527609146	1
0	910	52.654442758127	0
0	912	53.161811458456	1
0	914	53.260978125123	0
0	916	53.471910429215	1
0	918	53.571077095882	0
0	920	53.722301864451	1
0	922	53.821468531118	0
0	924	54.015376594927	1
0	926	54.114543261594	0
0	928	54.166043111462	1
0	930	54.265209778129	0
0	932	54.35154466459	1
0	934	54.447954852701	2
0	937	54.504566644189	2
0	940	54.603733310856	0
0	942	54.641491662358	1
0	944	54.723025808044	2
0	947	54.822192474711	0
0	949	54.971485962402	1
0	951	55.048551733822	2
0	953	55.059892572647	2
0	957	55.159059239314	0
0	959	55.210019612449	1
0	961	55.309186279116	0
0	963	55.406961366111	1
0	965	55.506128032778	0
0	967	55.841551054516	1
0	969	55.940717721183	0
0	971	55.957197659192	1
0	973	55.984195845887	2
0	976	56.083362512554	0
0	978	56.825930920124	1
0	980	56.864754108016	2
0	983	56.963920774683	0
0	985	57.324258624359	1
0	987	57.423425291026	0
0	989	57.630266572952	1
0	991	57.729433239619	0
0	993	57.811887963594	1
0	995	57.911054630261	0
0	997	58.089956210048	1
0	999	58.189122876715	0
0	1001	58.32179123533	1
0	1003	58.420957901997	0
0	1005	58.772299082888	1
0	1007	58.871465749555	0
0	1009	59.068441018689	1
0	1011	59.167607685356	0
0	1013	59.262668730892	1
0	1015	59.361835397559	0
0	1017	59.534344589581	1
0	1019	59.613175468365	2
0	1022	59.712342135032	0
0	1024	59.750251891829	1
0	1026	59.75625810644	2
0	1029	59.855424773107	0
0	1031	60.70760318019	1
0	1033	60.734060450431	2
0	1035	60.793424338887	2
0	1038	60.807674815769	2
0	1040	60.814381510124	2
0	1042	60.825142972568	2
0	1048	60.924309639235	0
0	1050	61.031235083123	1
0	1052	61.03241459945	2
0	1054	61.115589037943	2
0	1058	61.21475570461	0
0	1060	61.450652680985	1
0	1062	61.549819347652	0
0	1064	61.582098392633	1
0	1066	61.6812650593	0
0	1068	61.720790039857	1
0	1070	61.746748235772	2
0	1073	61.845914902439	0
0	1075	61.950184154946	1
0	1077	62.049350821613	0
0	1079	62.073935321841	1
0	1081	62.158875241122	2
0	1084	62.258041907789	0
0	1086	62.435409924854	1
0	1088	62.43660337725	2
0	1091	62.535770043917	0
0	1093	62.689159078152	1
0	1095	62.727244218408	2
0	1098	62.826410885075	0
0	1100	63.019271329258	1
0	1102	63.118437995925	0
0	1104	63.450572395877	1
0	1106	63.549739062544	0
0	1108	63.998392978868	1
0	1110	64.097559645535	0
0	1112	64.171337114261	1
0	1114	64.195294123445	2
0	1117	64.294460790112	0
0	1119	64.835490195342	1
0	1121	64.934656862009	0
0	1123	65.136124140301	1
0	1125	65.235290806968	0
0	1127	65.448863341792	1
0	1129	65.548030008459	0
0	1131	65.893720316223	1
0	1133	65.99288698289	0
0	1135	66.443942476785	1
0	1137	66.543109143452	0
0	1139	66.559150892798	1
0	1141	66.627290254954	2
0	1144	66.726456921621	0
0	1146	67.011508904537	1
0	1148	67.110675571204	0
0	1150	67.360824313064	1
0	1152	67.435275498805	2
0	1155	67.534442165472	0
0	1157	67.638071985472	1
0	1159	67.737238652139	0
0	1161	67.767301667667	1
0	1163	67.866468334334	0
0	1165	67.869580963232	1
0	1167	67.930934865892	2
0	1170	68.026784930914	2
0	1173	68.121634272729	2
0	1176	68.220800939396	0
0	1178	68.445570256596	1
0	1180	68.544736923263	0
0	1182	68.699606282138	1
0	1184	68.704931460688	2
0	1187	68.804098127355	0
0	1189	68.968379176088	1
0	1191	69.067545842755	0
0	1193	69.196045176437	1
0	1195	69.241449577719	2
0	1198	69.340616244386	0
0	1200	69.790458829327	1
0	1202	69.803808118416	2
0	1205	69.902974785083	0
0	1207	70.450286196071	1
0	1209	70.549452862738	0
0	1211	71.063323144698	1
0	1213	71.159253625907	2
0	1216	71.220443547111	2
0	1219	71.319610213778	0
0	1221	71.456002169486	1
0	1223	71.555168836153	0
0	1225	71.602984450946	1
0	1227	71.702151117613	0
0	1229	71.827723686823	1
0	1231	71.92689035349	0
0	1233	72.138273203174	1
0	1235	72.237439869841	0
0	1237	72.859522104107	1
0	1239	72.875986689402	2
0	1242	72.975153356069	0
0	1244	72.981053320444	1
0	1246	73.056210180243	2
0	1249	73.15537684691	0
0	1251	73.186280221198	1
0	1253	73.285446887865	0
0	1255	73.325496106114	1
0	1257	73.424662772781	0
0	1259	73.452733991832	1
0	1261	73.494958683776	2
0	1263	73.539434824736	2
0	1267	73.638601491403	0
0	1269	73.757909636559	1
0	1271	73.857076303226	0
0	1273	73.920813084088	1
0	1275	74.019979750755	0
0	1277	74.046018698334	1
0	1279	74.098298395266	2
0	1282	74.197465061933	0
0	1284	74.223798371044	1
0	1286	74.322965037711	0
0	1288	74.423499561681	1
0	1290	74.522666228348	0
0	1292	74.89059318145	1
0	1294	74.957839734332	2
0	1297	75.000813788285	2
0	1300	75.079069262912	2
0	1303	75.178235929579	0
0	1305	75.388970534443	1
0	1307	75.48813720111	0
0	1309	75.645769893894	1
0	1311	75.744936560561	0
0	1313	75.818209166088	1
0	1315	75.917375832755	0
0	1317	75.944859684223	1
0	1319	76.022254909068	2
0	1322	76.121421575735	0
0	1324	76.168516338592	1
0	1326	76.267683005259	0
0	1328	76.629558741575	1
0	1330	76.728725408242	0
0	1332	77.181020596972	1
0	1334	77.280187263639	0
0	1336	77.41613710336	1
0	1338	77.515303770027	0
0	1340	77.601448952796	1
0	1342	77.618073785864	2
0	1345	77.717240452531	0
0	1347	77.855900829233	1
0	1349	77.9550674959	0
0	1351	78.202410737683	1
0	1353	78.224210835697	2
0	1355	78.256966090508	2
0	1359	78.356132757175	0
0	1361	78.694359977172	1
0	1363	78.699197943532	2
0	1365	78.748222889088	2
0	1369	78.847389555755	0
0	1371	78.883322802625	1
0	1373	78.982489469292	0
0	1375	79.173667910597	1
0	1377	79.272834577264	0
0	1379	79.594136223646	1
0	1381	79.693302890313	0
0	1383	80.611474582292	1
0	1385	80.66120465423	2
0	1388	80.760371320897	0
0	1390	80.883595534947	1
0	1392	80.982762201614	0
0	1394	81.298318870255	1
0	1396	81.397485536922	0
0	1398	81.973178090375	1
0	1400	82.072344757042	0
0	1402	82.774515789061	1
0	1404	82.873682455728	0
0	1406	82.991321215066	1
0	1408	83.023999042565	2
0	1411	83.123165709232	0
0	1413	83.165501043377	1
0	1415	83.264667710044	0
0	1417	83.297410693532	1
0	1419	83.375325899215	2
0	1422	83.474492565882	0
0	1424	83.512846387583	1
0	1426	83.61201305425	0
0	1428	83.768702810908	1
0	1430	83.867869477575	0
0	1432	83.907376138231	1
0	1434	83.928358595258	2
0	1437	84.027525261925	0
0	1439	84.073586065312	1
0	1441	84.080491152365	2
0	1444	84.179657819032	0
0	1446	84.377753910282	1
0	1448	84.476920576949	0
0	1450	84.743394159568	1
0	1452	84.842560826235	0
0	1454	85.13222597639	1
0	1456	85.132615150277	2
0	1458	85.151146438488	2
0	1462	85.250313105155	0
0	1464	85.388415456224	1
0	1466	85.399385007349	2
0	1469	85.498551674016	0
0	1471	85.748951208818	1
0	1473	85.757970512019	2
0	1475	85.815189540562	2
0	1479	85.860319675747	2
0	1482	85.959486342414	0
0	1484	86.318803841515	1
0	1486	86.322696974591	2
0	1489	86.421863641258	0
0	1491	86.677370160123	1
0	1493	86.77653682679	0
0	1495	87.651099931625	1
0	1497	87.750266598292	0
0	1499	87.753904394707	1
0	1501	87.853071061374	0
0	1503	87.861649596075	1
0	1505	87.960816262742	0
0	1507	88.472338698512	1
0	1509	88.503358229924	2
0	1512	88.593200013837	2
0	1514	88.593314565148	2
0	1518	88.692481231815	0
0	1520	89.209006529077	1
0	1522	89.308173195744	0
0	1524	89.424661195387	1
0	1526	89.471930160398	2
0	1529	89.535537153662	2
0	1532	89.631495491289	2
0	1535	89.730662157956	0
0	1537	90.134474468786	1
0	1539	90.233641135453	0
0	1541	90.279890403063	1
0	1543	90.37905706973	0
0	1545	90.497454636564	1
0	1547	90.565625285041	2
0	1550	90.664791951708	0
0	1552	91.046603036981	1
0	1554	91.145769703648	0
0	1556	91.295479945625	1
0	1558	91.394646612292	0
0	1560	91.605940694743	1
0	1562	91.648444009796	2
0	1565	91.747610676463	0
0	1567	92.138185559719	1
0	1569	92.237352226386	0
0	1571	92.36045226467	1
0	1573	92.373954683651	2
0	1576	92.473121350318	0
0	1578	92.497487354836	1
0	1580	92.596654021503	0
0	1582	92.667918542829	1
0	1584	92.767085209496	0
0	1586	92.883574412732	1
0	1588	92.900865082902	2
0	1591	93.000031749569	0
0	1593	93.523789176625	1
0	1595	93.622955843292	0
0	1597	93.701626087632	1
0	1599	93.800792754299	0
0	1601	94.045097812229	1
0	1603	94.144264478896	0
0	1605	94.189960073784	1
0	1607	94.289126740451	0
0	1609	94.542135326908	1
0	1611	94.574786263159	2
0	1614	94.673952929826	0
0	1616	94.906769126296	1
0	1618	95.001179127305	2
0	1621	95.100345793972	0
0	1623	95.552621810938	1
0	1625	95.567895962846	2
0	1628	95.667062629513	0
0	1630	95.692486447663	1
0	1632	95.79165311433	0
0	1634	96.349642443878	1
0	1636	96.448809110545	0
0	1638	96.58498891756	1
0	1640	96.619083321504	2
0	1643	96.718249988171	0
0	1645	96.811815430438	1
0	1647	96.910982097105	0
0	1649	96.941832701684	1
0	1651	97.040999368351	0
0	1653	97.114417686742	1
0	1655	97.213584353409	0
0	1657	97.586395237907	1
0	1659	97.670579250312	2
0	1662	97.769745916979	0
0	1664	97.910332324391	1
0	1666	98.009498991058	0
0	1668	98.263455566148	1
0	1670	98.362622232815	0
0	1672	98.862596362871	1
0	1674	98.961763029538	0
0	1676	99.055814686444	1
0	1678	99.154981353111	0
0	1680	99.556764991631	1
0	1682	99.655931658298	0
0	1684	99.683458941291	1
0	1686	99.782625607958	0
0	1688	100.295250372248	1
0	1690	100.342520744376	2
0	1693	100.421254484297	2
0	1696	100.520421150964	0
0	1698	100.867381453196	1
0	1700	100.966548119863	0
0	1702	101.039097673569	1
0	1704	101.138264340236	0
0	1706	101.360186014913	1
0	1708	101.45935268158	0
0	1710	101.576223478844	1
0	1712	101.675390145511	0
0	1714	101.833981513816	1
0	1716	101.933148180483	0
0	1718	102.070709402323	1
0	1720	102.16987606899	0
0	1722	102.170955204112	1
0	1724	102.252207165616	2
0	1727	102.305955078298	2
0	1730	102.405121744965	0
0	1732	102.662353956766	1
0	1734	102.761520623433	0
0	1736	102.93147236093	1
0	1738	103.030639027597	0
0	1740	103.368439948375	1
0	1742	103.467606615042	0
0	1744	103.57334620271	1
0	1746	103.656105636878	2
0	1749	103.755272303545	0
0	1751	103.984060168193	1
0	1753	104.021067522296	2
0	1756	104.120234188963	0
0	1758	104.234249723939	1
0	1760	104.333416390606	0
0	1762	104.377232730294	1
0	1764	104.476399396961	0
0	1766	104.549435513941	1
0	1768	104.645844285359	2
0	1771	104.745010952026	0
0	1773	104.81996442322	1
0	1775	104.919131089887	0
0	1777	105.18580968825	1
0	1779	105.199919915309	2
0	1782	105.299086581976	0
0	1784	105.889520323625	1
0	1786	105.988686990292	0
0	1788	106.171944878071	1
0	1790	106.271111544738	0
0	1792	106.286169443646	1
0	1794	106.385336110313	0
0	1796	106.748146585044	1
0	1798	106.847313251711	0
0	1800	106.972764023537	1
0	1802	107.071930690204	0
0	1804	107.147651109262	1
0	1806	107.237178219552	2
0	1809	107.336344886219	0
0	1811	107.684181676429	1
0	1813	107.772724448876	2
0	1816	107.871891115543	0
0	1818	107.96983211709	1
0	1820	108.068998783757	0
0	1822	108.338224184341	1
0	1824	108.437390851008	0
0	1826	108.708934363621	1
0	1828	108.774612781898	2
0	1831	108.873779448565	0
0	1833	108.900437833685	1
0	1835	108.999604500352	0
0	1837	109.770465571302	1
0	1839	109.81588554957	2
0	1841	109.816640661316	2
0	1843	109.847474963006	2
0	1848	109.946641629673	0
0	1850	110.084657775062	1
0	1852	110.183824441729	0
0	1854	110.362760691986	1
0	1856	110.427286904765	2
0	1859	110.526453571432	0
0	1861	110.744757682053	1
0	1863	110.84392434872	0
0	1865	110.845486983367	1
0	1867	110.944653650034	0
0	1869	111.127853789783	1
0	1871	111.22702045645	0
0	1873	111.261220667408	1
0	1875	111.360387334075	0
0	1877	111.652812435833	1
0	1879	111.7519791025	0
0	1881	111.757050635955	1
0	1883	111.856217302622	0
0	1885	111.93391470547	1
0	1887	112.033081372137	0
0	1889	112.111104384039	1
0	1891	112.210271050706	0
0	1893	112.214351842169	1
0	1895	112.313518508836	0
0	1897	112.320701594063	1
0	1899	112.41986826073	0
0	1901	112.435665951362	1
0	1903	112.446627381106	2
0	1905	112.479832620636	2
0	1909	112.578999287303	0
0	1911	112.62845420034	1
0	1913	112.727620867007	0
0	1915	112.850392697118	1
0	1917	112.852669484839	2
0	1920	112.951836151506	0
0	1922	113.035597822317	1
0	1924	113.134764488984	0
0	1926	113.142787496602	1
0	1928	113.241954163269	0
0	1930	113.342727683402	1
0	1932	113.441894350069	0
0	1934	113.639590665819	1
0	1936	113.666838320319	2
0	1939	113.756653565821	2
0	1942	113.855820232488	0
0	1944	114.194588945164	1
0	1946	114.251579244794	2
0	1949	114.350745911461	0
0	1951	114.621483714893	1
0	1953	114.630719360837	2
0	1956	114.729886027504	0
0	1958	115.476303968082	1
0	1960	115.575470634749	0
0	1962	115.722866285295	1
0	1964	115.822032951962	0
0	1966	115.980564650164	1
0	1968	116.079731316831	0
0	1970	116.258883128557	1
0	1972	116.358049795224	0
0	1974	116.376546611921	1
0	1976	116.475713278588	0
0	1978	116.628879760018	1
0	1980	116.728046426685	0
0	1982	116.750116550426	1
0	1984	116.849283217093	0
0	1986	117.679593391325	1
0	1988	117.778760057992	0
0	1990	117.999793000315	1
0	1992	118.037778726706	2
0	1995	118.136945393373	0
0	1997	118.277627337636	1
0	1999	118.376794004303	0
0	2001	118.518851687401	1
0	2003	118.618018354068	0
0	2005	118.669690963188	1
0	2007	118.768857629855	0
0	2009	118.882198733087	1
0	2011	118.981365399754	0
0	2013	119.016360260503	1
0	2015	119.11552692717	0
0	2017	119.347124484871	1
0	2019	119.409793810309	2
0	2022	119.503336721173	2
0	2025	119.60250338784	0
0	2027	119.621614589063	1
0	2029	119.663621928435	2
0	2032	119.762788595102	0
0	2034	120.86911557119	1
0	2036	120.879232329943	2
0	2039	120.97839899661	0
0	2041	121.182685609558	1
0	2043	121.281852276225	0
0	2045	121.309952095085	1
0	2047	121.34474511578	2
0	2049	121.381455235549	2
0	2053	121.480621902216	0
0	2055	121.531526671981	1
0	2057	121.618326216387	2
0	2060	121.717492883054	0
0	2062	121.756915573618	1
0	2064	121.856082240285	0
0	2066	122.024160998153	1
0	2068	122.069410502395	2
0	2071	122.168577169062	0
0	2073	122.362447025603	1
0	2075	122.46161369227	0
0	2077	122.50424453292	1
0	2079	122.603411199587	0
0	2081	122.693298439748	1
0	2083	122.792465106415	0
0	2085	122.810066959625	1
0	2087	122.909233626292	0
0	2089	122.990710080526	1
0	2091	123.050411261926	2
0	2094	123.149577928593	0
0	2096	123.197484056858	1
0	2098	123.271399005722	2
0	2101	123.370565672389	0
0	2103	123.496047237882	1
0	2105	123.595213904549	0
0	2107	123.875270853753	1
0	2109	123.97443752042	0
0	2111	124.969509749628	1
0	2113	124.987053700817	2
0	2115	125.00803720185	2
0	2117	125.05403654166	2
0	2122	125.11686941518	2
0	2125	125.169718149123	2
0	2128	125.243543047364	2
0	2131	125.292994810195	2
0	2134	125.392161476862	0
0	2136	125.469993734136	1
0	2138	125.544723318058	2
0	2141	125.608929451242	2
0	2144	125.708096117909	0
0	2146	125.747996146232	1
0	2148	125.847162812899	0
0	2150	126.047907185647	1
0	2152	126.147073852314	0
0	2154	126.175201810134	1
0	2156	126.274368476801	0
0	2158	126.367512100977	1
0	2160	126.422532360069	2
0	2162	126.465735285864	2
0	2166	126.530350803625	2
0	2169	126.617489492947	2
0	2172	126.716656159614	0
0	2174	127.02821765553	1
0	2176	127.11555756259	2
0	2179	127.214724229257	0
0	2181	127.657652294651	1
0	2183	127.756818961318	0
0	2185	127.989156428044	1
0	2187	128.024224960807	2
0	2190	128.123391627474	0
0	2192	128.514152048069	1
0	2194	128.51456944825	2
0	2197	128.613736114917	0
0	2199	128.803638102051	1
0	2201	128.878300318478	2
0	2204	128.977466985145	0
0	2206	129.087576332329	1
0	2208	129.090078883092	2
0	2211	129.189245549759	0
0	2213	129.321327388144	1
0	2215	129.420494054811	0
0	2217	129.747089929961	1
0	2219	129.846256596628	0
0	2221	129.848732425486	1
0	2223	129.913248826224	2
0	2226	130.012415492891	0
0	2228	130.013161381818	1
0	2230	130.112328048485	0
0	2232	130.171395390718	1
0	2234	130.221084833123	2
0	2237	130.32025149979	0
0	2239	130.733807208151	1
0	2241	130.832973874818	0
0	2243	130.840560950332	1
0	2245	130.873542061505	2
0	2247	130.886916877786	2
0	2251	130.986083544453	0
0	2253	131.047437760469	1
0	2255	131.048653514696	2
0	2257	131.073343823385	2
0	2261	131.172510490052	0
0	2263	131.403717354079	1
0	2265	131.409891347419	2
0	2267	131.459515734435	2
0	2271	131.514943225054	2
0	2274	131.614109891721	0
0	2276	131.81808883244	1
0	2278	131.917255499107	0
0	2280	132.206267811209	1
0	2282	132.233962513343	2
0	2285	132.33312918001	0
0	2287	132.373297317817	1
0	2289	132.472463984484	0
0	2291	132.685382064885	1
0	2293	132.724881809633	2
0	2296	132.797958875407	2
0	2299	132.835745197618	2
0	2302	132.934911864285	0
0	2304	133.4440847559	1
0	2306	133.500589404748	2
0	2309	133.599756071415	0