version 3
run PureAlohaExperiment-9-20260306-12:10:17-8840
attr configname PureAlohaExperiment
attr datetime 20260306-12:10:17
attr datetimef 20260306-121017
attr experiment PureAlohaExperiment
attr inifile omnetpp.ini
attr iterationvars "$numHosts=10, $iaMean=5"
attr iterationvarsd numHosts=10/iaMean=5
attr iterationvarsf numHosts=10,iaMean=5-
attr measurement "$numHosts=10, $iaMean=5"
attr network Aloha
attr processid 8840
attr repetition 1
attr replication #1
attr resultdir results
attr runnumber 9
attr seedset 9
itervar iaMean 5
itervar numHosts 10
config description "Channel utilization in the function of packet generation frequency"
config repeat 2
config sim-time-limit 90min
config Aloha.numHosts 10
config Aloha.host[*].iaTime exponential(5s)
config network Aloha
config Aloha.numHosts 20
config Aloha.slotTime 0s
config Aloha.txRate 9.6kbps
config Aloha.host[*].pkLenBits 952b
config **.x "uniform(0m, 1000m)"
config **.y "uniform(0m, 1000m)"
config **.animationHoldTimeOnCollision 0s
config **.idleAnimationSpeed 1
config **.transmissionEdgeAnimationSpeed 1e-6
config **.midTransmissionAnimationSpeed 1e-1

vector 0 Aloha.server serverChannelState:vector ETV
attr enum IDLE=0,TRANSMISSION=1,COLLISION=2
attr recordingmode vector
attr source channelState
attr title "Channel state"
vector 1 Aloha.host[0] radioState:vector ETV
attr enum IDLE=0,TRANSMIT=1
attr recordingmode vector
attr source state
attr title "Radio state"
vector 2 Aloha.host[1] radioState:vector ETV
attr enum IDLE=0,TRANSMIT=1
attr recordingmode vector
attr source state
attr title "Radio state"
vector 3 Aloha.host[2] radioState:vector ETV
attr enum IDLE=0,TRANSMIT=1
attr recordingmode vector
attr source state
attr title "Radio state"
vector 4 Aloha.host[3] radioState:vector ETV
attr enum IDLE=0,TRANSMIT=1
attr recordingmode vector
attr source state
attr title "Radio state"
vector 5 Aloha.host[4] radioState:vector ETV
attr enum IDLE=0,TRANSMIT=1
attr recordingmode vector
attr source state
attr title "Radio state"
vector 6 Aloha.host[5] radioState:vector ETV
attr enum IDLE=0,TRANSMIT=1
attr recordingmode vector
attr source state
attr title "Radio state"
vector 7 Aloha.host[6] radioState:vector ETV
attr enum IDLE=0,TRANSMIT=1
attr recordingmode vector
attr source state
attr title "Radio state"
vector 8 Aloha.host[7] radioState:vector ETV
attr enum IDLE=0,TRANSMIT=1
attr recordingmode vector
attr source state
attr title "Radio state"
vector 9 Aloha.host[8] radioState:vector ETV
attr enum IDLE=0,TRANSMIT=1
attr recordingmode vector
attr source state
attr title "Radio state"
vector 10 Aloha.host[9] radioState:vector ETV
attr enum IDLE=0,TRANSMIT=1
attr recordingmode vector
attr source state
attr title "Radio state"
vector 11 Aloha.server channelUtilizationVector:vector ETV
attr interpolationmode linear
attr recordingmode vector
attr source timeavg(receive)
attr title "channel utilization evolution"
0	0	0	0
0	2	0.197597180148	1
0	4	0.296763846815	0
0	6	0.727587497955	1
0	8	0.826754164622	0
0	10	1.55770710498	1
0	12	1.656873771647	0
0	14	2.341636634919	1
0	16	2.440803301586	0
0	18	4.252045924593	1
0	20	4.35121259126	0
0	22	6.005010399525	1
0	24	6.045738604803	2
0	27	6.14490527147	0
0	29	6.633680720311	1
0	31	6.732847386978	0
0	33	7.15342095919	1
0	35	7.252587625857	0
0	37	8.319783984682	1
0	39	8.418950651349	0
0	41	9.695276604231	1
0	43	9.794443270898	0
0	45	10.130783422545	1
0	47	10.229950089212	0
0	49	10.541638761006	1
0	51	10.640805427673	0
0	53	11.711025390003	1
0	55	11.81019205667	0
0	57	12.205390812469	1
0	59	12.304557479136	0
0	61	13.38414847737	1
0	63	13.483315144037	0
0	65	14.390498924029	1
0	67	14.489665590696	0
0	69	15.076006224962	1
0	71	15.175172891629	0
0	73	15.438251445474	1
0	75	15.537418112141	0
0	77	15.722467186405	1
0	79	15.821633853072	0
0	81	16.912455184099	1
0	83	17.011621850766	0
0	85	17.195133092818	1
0	87	17.294299759485	0
0	89	17.500839108515	1
0	91	17.526866061766	2
0	94	17.626032728433	0
0	96	17.845930314091	1
0	98	17.945096980758	0
0	100	18.039224751597	1
0	102	18.138391418264	0
0	104	18.488731319473	1
0	106	18.529462959662	2
0	109	18.628629626329	0
0	111	19.351952211609	1
0	113	19.451118878276	0
0	115	20.724555310228	1
0	117	20.823721976895	0
0	119	21.083361773142	1
0	121	21.182528439809	0
0	123	21.626254746384	1
0	125	21.725421413051	0
0	127	21.998960286908	1
0	129	22.004966237969	2
0	132	22.104132904636	0
0	134	23.678987119424	1
0	136	23.778153786091	0
0	138	24.693669045497	1
0	140	24.792835712164	0
0	142	24.804313951789	1
0	144	24.809389902698	2
0	147	24.908556569365	0
0	149	26.296204844427	1
0	151	26.395371511094	0
0	153	28.600612299194	1
0	155	28.699778965861	0
0	157	29.266952880565	1
0	159	29.366119547232	0
0	161	30.330555148981	1
0	163	30.429721815648	0
0	165	30.668850142913	1
0	167	30.76801680958	0
0	169	31.042892830678	1
0	171	31.142059497345	0
0	173	33.13726893651	1
0	175	33.236435603177	0
0	177	34.691676247397	1
0	179	34.790842914064	0
0	181	35.178009626062	1
0	183	35.277176292729	0
0	185	35.366575675935	1
0	187	35.465742342602	0
0	189	35.482661072455	1
0	191	35.581827739122	0
0	193	36.337926178475	1
0	195	36.437092845142	0
0	197	36.606885350892	1
0	199	36.706052017559	0
0	201	36.729018421663	1
0	203	36.82818508833	0
0	205	37.491125855292	1
0	207	37.590292521959	0
0	209	37.867851333742	1
0	211	37.967018000409	0
0	213	38.390943451403	1
0	215	38.49011011807	0
0	217	38.722052077375	1
0	219	38.821218744042	0
0	221	39.290755989461	1
0	223	39.389922656128	0
0	225	39.773943865165	1
0	227	39.873110531832	0
0	229	40.134742637004	1
0	231	40.233909303671	0
0	233	40.296769357181	1
0	235	40.395936023848	0
0	237	40.840482079023	1
0	239	40.93964874569	0
0	241	41.203192878368	1
0	243	41.271236313552	2
0	246	41.3322923995	2
0	248	41.349675835298	2
0	252	41.448842501965	0
0	254	41.819263879281	1
0	256	41.918430545948	0
0	258	43.13926101093	1
0	260	43.238427677597	0
0	262	43.439698950849	1
0	264	43.538865617516	0
0	266	43.796689386631	1
0	268	43.82292103607	2
0	271	43.922087702737	0
0	273	44.141072237226	1
0	275	44.240238903893	0
0	277	46.758189063592	1
0	279	46.857355730259	0
0	281	47.449435330772	1
0	283	47.548601997439	0
0	285	47.789691267435	1
0	287	47.888857934102	0
0	289	49.10394561853	1
0	291	49.203112285197	0
0	293	49.321540016313	1
0	295	49.42070668298	0
0	297	49.475706976605	1
0	299	49.529488562109	2
0	302	49.606755055313	2
0	305	49.70592172198	0
0	307	49.771546026632	1
0	309	49.870712693299	0
0	311	50.280581519788	1
0	313	50.379748186455	0
0	315	50.634747617969	1
0	317	50.645276537386	2
0	320	50.744443204053	0
0	322	51.240319724995	1
0	324	51.339486391662	0
0	326	51.631746452269	1
0	328	51.710707261954	2
0	331	51.809873928621	0
0	333	52.003391406918	1
0	335	52.026358919849	2
0	338	52.125525586516	0
0	340	52.173187408796	1
0	342	52.272354075463	0
0	344	52.477699798708	1
0	346	52.576866465375	0
0	348	53.673549222427	1
0	350	53.772715889094	0
0	352	54.278961224418	1
0	354	54.378127891085	0
0	356	54.413534712857	1
0	358	54.512701379524	0
0	360	55.228565036029	1
0	362	55.327731702696	0
0	364	55.504739003153	1
0	366	55.585428960462	2
0	369	55.684595627129	0
0	371	56.564814446824	1
0	373	56.663981113491	0
0	375	57.155414757683	1
0	377	57.172668373125	2
0	380	57.271835039792	0
0	382	57.387497339194	1
0	384	57.486664005861	0
0	386	57.856079287847	1
0	388	57.955245954514	0
0	390	58.292459756239	1
0	392	58.391626422906	0
0	394	59.122936734161	1
0	396	59.222103400828	0
0	398	59.75499462645	1
0	400	59.854161293117	0
0	402	60.306246245187	1
0	404	60.335529966498	2
0	407	60.434696633165	0
0	409	60.457568093499	1
0	411	60.49253471544	2
0	414	60.591701382107	0
0	416	61.819143045007	1
0	418	61.918309711674	0
0	420	62.504287198458	1
0	422	62.588885804345	2
0	425	62.688052471012	0
0	427	62.782549693261	1
0	429	62.881716359928	0
0	431	63.237340446979	1
0	433	63.336507113646	0
0	435	63.492679666915	1
0	437	63.591846333582	0
0	439	64.542128071902	1
0	441	64.641294738569	0
0	443	64.808229665112	1
0	445	64.907396331779	0
0	447	65.094722637586	1
0	449	65.193889304253	0
0	451	65.21243622048	1
0	453	65.311602887147	0
0	455	65.36318580274	1
0	457	65.365476239852	2
0	460	65.464642906519	0
0	462	65.862107527124	1
0	464	65.961274193791	0
0	466	66.515716954908	1
0	468	66.614883621575	0
0	470	67.571829919605	1
0	472	67.670996586272	0
0	474	68.008542573143	1
0	476	68.10770923981	0
0	478	68.649849369777	1
0	480	68.674694057298	2
0	483	68.773860723965	0
0	485	68.814752703742	1
0	487	68.913919370409	0
0	489	69.113149384101	1
0	491	69.1420727464	2
0	494	69.241239413067	0
0	496	70.070598467535	1
0	498	70.169765134202	0
0	500	70.279669185467	1
0	502	70.378835852134	0
0	504	71.267696964931	1
0	506	71.366863631598	0
0	508	71.724924611071	1
0	510	71.824091277738	0
0	512	71.992114723409	1
0	514	72.055122974766	2
0	517	72.091574846164	2
0	520	72.158436379451	2
0	523	72.257603046118	0
0	525	72.47022645057	1
0	527	72.569393117237	0
0	529	72.885018873734	1
0	531	72.984185540401	0
0	533	73.531048979957	1
0	535	73.626291710108	2
0	538	73.725458376775	0
0	540	73.731149028988	1
0	542	73.80929003615	2
0	545	73.908456702817	0
0	547	74.440927974521	1
0	549	74.444078285321	2
0	552	74.543244951988	0
0	554	75.554760647951	1
0	556	75.653927314618	0
0	558	75.876950054722	1
0	560	75.976116721389	0
0	562	76.554913781874	1
0	564	76.637783491493	2
0	567	76.73695015816	0
0	569	77.157888335426	1
0	571	77.257055002093	0
0	573	77.294126452886	1
0	575	77.393293119553	0
0	577	77.459234770378	1
0	579	77.558401437045	0
0	581	78.497141173543	1
0	583	78.59630784021	0
0	585	78.739621078826	1
0	587	78.838787745493	0
0	589	79.10081245748	1
0	591	79.140106197174	2
0	594	79.210915192366	2
0	597	79.310081859033	0
0	599	80.04739426772	1
0	601	80.133613340518	2
0	604	80.232780007185	0
0	606	80.42632418161	1
0	608	80.525490848277	0
0	610	80.614982390609	1
0	612	80.677138159744	2
0	615	80.776304826411	0
0	617	82.572602893783	1
0	619	82.67176956045	0
0	621	83.107972580609	1
0	623	83.207139247276	0
0	625	83.407989625697	1
0	627	83.507156292364	0
0	629	84.180964255902	1
0	631	84.280130922569	0
0	633	84.309689434781	1
0	635	84.408856101448	0
0	637	84.858333365058	1
0	639	84.957500031725	0
0	641	84.994062170431	1
0	643	85.093228837098	0
0	645	85.39545929157	1
0	647	85.494625958237	0
0	649	86.614137527048	1
0	651	86.713304193715	0
0	653	87.244878985921	1
0	655	87.344045652588	0
0	657	88.515974451646	1
0	659	88.615141118313	0
0	661	88.766995017581	1
0	663	88.866161684248	0
0	665	89.732128327916	1
0	667	89.821914040475	2
0	669	89.830945466096	2
0	673	89.930112132763	0
0	675	90.10516508989	1
0	677	90.204331756557	0
0	679	90.646806897389	1
0	681	90.745973564056	0
0	683	91.341880406339	1
0	685	91.342950265673	2
0	688	91.44211693234	0
0	690	91.50368828937	1
0	692	91.602854956037	0
0	694	91.798227521216	1
0	696	91.897394187883	0
0	698	93.47475472689	1
0	700	93.573921393557	0
0	702	93.835646095093	1
0	704	93.93481276176	0
0	706	95.447211717923	1
0	708	95.54637838459	0
0	710	95.846507776633	1
0	712	95.9456744433	0
0	714	96.611629948064	1
0	716	96.710796614731	0
0	718	98.176413085184	1
0	720	98.275579751851	0
0	722	100.158893825723	1
0	724	100.233726367849	2
0	727	100.332893034516	0
0	729	100.656574958103	1
0	731	100.743143137225	2
0	734	100.842309803892	0
0	736	101.07133685952	1
0	738	101.170503526187	0
0	740	101.358938790555	1
0	742	101.458105457222	0
0	744	101.732258566839	1
0	746	101.831425233506	0
0	748	102.689972888472	1
0	750	102.789139555139	0
0	752	103.018476779668	1
0	754	103.117643446335	0
0	756	103.187686777344	1
0	758	103.286853444011	0
0	760	103.33045904919	1
0	762	103.429625715857	0
0	764	104.239425904772	1
0	766	104.338592571439	0
0	768	105.764481514456	1
0	770	105.775700190906	2
0	773	105.874866857573	0
0	775	106.462235912762	1
0	777	106.561402579429	0
0	779	106.632889455681	1
0	781	106.732056122348	0
0	783	108.174929171126	1
0	785	108.274095837793	0
0	787	108.525274775667	1
0	789	108.624441442334	0
0	791	109.560229530435	1
0	793	109.618855178959	2
0	796	109.718021845626	0
0	798	110.061237730711	1
0	800	110.098078117693	2
0	803	110.19724478436	0
0	805	110.255581528893	1
0	807	110.35474819556	0
0	809	110.557413957995	1
0	811	110.656580624662	0
0	813	112.498759100841	1
0	815	112.597925767508	0
0	817	113.921437732433	1
0	819	114.0206043991	0
0	821	114.139553881797	1
0	823	114.238720548464	0
0	825	114.953187937283	1
0	827	115.05235460395	0
0	829	115.238015580084	1
0	831	115.337182246751	0
0	833	116.627689217163	1
0	835	116.72685588383	0
0	837	117.00958623675	1
0	839	117.108752903417	0
0	841	117.280901415824	1
0	843	117.380068082491	0
0	845	117.872351935941	1
0	847	117.971518602608	0
0	849	118.242789952887	1
0	851	118.341956619554	0
0	853	118.810798314067	1
0	855	118.909964980734	0
0	857	118.97922109149	1
0	859	119.078387758157	0
0	861	119.243003854928	1
0	863	119.342170521595	0
0	865	119.67516086585	1
0	867	119.774327532517	0
0	869	121.931577620784	1
0	871	122.030744287451	0
0	873	122.594519470277	1
0	875	122.647005679127	2
0	877	122.652397621658	2
0	881	122.751564288325	0
0	883	123.06051072878	1
0	885	123.159677395447	0
0	887	123.18540032782	1
0	889	123.193904305711	2
0	892	123.293070972378	0
0	894	124.015895995037	1
0	896	124.115062661704	0
0	898	124.218315024423	1
0	900	124.31748169109	0
0	902	124.537310612493	1
0	904	124.63647727916	0
0	906	124.820739213032	1
0	908	124.900374577044	2
0	911	124.999541243711	0
0	913	125.819013718087	1
0	915	125.837061080557	2
0	918	125.936227747224	0
0	920	126.285029430945	1
0	922	126.384196097612	0
0	924	126.704265357443	1
0	926	126.80343202411	0
0	928	128.049165793455	1
0	930	128.148332460122	0
0	932	129.847590180466	1
0	934	129.946756847133	0
0	936	130.15781080186	1
0	938	130.256977468527	0
0	940	130.904099590223	1
0	942	131.00326625689	0
0	944	131.097746262147	1
0	946	131.196912928814	0
0	948	132.241573690685	1
0	950	132.340740357352	0
0	952	132.534354093253	1
0	954	132.63352075992	0
0	956	132.754447926649	1
0	958	132.800106020611	2
0	961	132.899272687278	0
0	963	134.14343012005	1
0	965	134.242596786717	0
0	967	135.645927472449	1
0	969	135.745094139116	0
0	971	136.183130021966	1
0	973	136.218422142747	2
0	976	136.317588809414	0
0	978	136.940704454922	1
0	980	137.039871121589	0
0	982	137.942771178671	1
0	984	138.041937845338	0
0	986	138.842486988634	1
0	988	138.941653655301	0
0	990	139.208026660458	1
0	992	139.307193327125	0
0	994	140.878020612333	1
0	996	140.977187279	0
0	998	141.204648469107	1
0	1000	141.303815135774	0
0	1002	141.338365295127	1
0	1004	141.437531961794	0
0	1006	141.541800776321	1
0	1008	141.640967442988	0
0	1010	141.677679610346	1
0	1012	141.776846277013	0
0	1014	141.921674374096	1
0	1016	141.961021834753	2
0	1019	142.06018850142	0
0	1021	142.195023465857	1
0	1023	142.294190132524	0
0	1025	142.365572685275	1
0	1027	142.464739351942	0
0	1029	143.168101158693	1
0	1031	143.26726782536	0
0	1033	143.700391983986	1
0	1035	143.799558650653	0
0	1037	144.176837279818	1
0	1039	144.276003946485	0
0	1041	144.409442608376	1
0	1043	144.508609275043	0
0	1045	145.348059547009	1
0	1047	145.447226213676	0
0	1049	146.899139269099	1
0	1051	146.998305935766	0
0	1053	148.216431104826	1
0	1055	148.315597771493	0
0	1057	148.659376347022	1
0	1059	148.758543013689	0
0	1061	149.518517680604	1
0	1063	149.617684347271	0
0	1065	149.944313430123	1
0	1067	149.9625636851	2
0	1070	150.061730351767	0
0	1072	150.197908901725	1
0	1074	150.297075568392	0
0	1076	150.98814119936	1
0	1078	151.026472356487	2
0	1080	151.075152144055	2
0	1083	151.10054384053	2
0	1087	151.199710507197	0
0	1089	151.352953724628	1
0	1091	151.452120391295	0
0	1093	151.5647819361	1
0	1095	151.663948602767	0
0	1097	151.857677968863	1
0	1099	151.95684463553	0
0	1101	152.287935959003	1
0	1103	152.38710262567	0
0	1105	153.393011569992	1
0	1107	153.492178236659	0
0	1109	154.052235780685	1
0	1111	154.151402447352	0
0	1113	154.24033516193	1
0	1115	154.339501828597	0
0	1117	154.631136531972	1
0	1119	154.730303198639	0
0	1121	154.896454253608	1
0	1123	154.995620920275	0
0	1125	155.5884766633	1
0	1127	155.687643329967	0
0	1129	155.817151687935	1
0	1131	155.916318354602	0
0	1133	156.792079070426	1
0	1135	156.891245737093	0
0	1137	157.190482512345	1
0	1139	157.289649179012	0
0	1141	157.519229827888	1
0	1143	157.618396494555	0
0	1145	157.741765629909	1
0	1147	157.840932296576	0
0	1149	158.366906967781	1
0	1151	158.466073634448	0
0	1153	158.645667886478	1
0	1155	158.744834553145	0
0	1157	158.979872982024	1
0	1159	159.079039648691	0
0	1161	159.941114072769	1
0	1163	160.040280739436	0
0	1165	160.858292001811	1
0	1167	160.957458668478	0
0	1169	161.145795218484	1
0	1171	161.244961885151	0
0	1173	161.28172577505	1
0	1175	161.380892441717	0
0	1177	161.613570819122	1
0	1179	161.712737485789	0
0	1181	161.995113277561	1
0	1183	162.094279944228	0
0	1185	163.621575299527	1
0	1187	163.720741966194	0
0	1189	163.74678646657	1
0	1191	163.845953133237	0
0	1193	165.100955453399	1
0	1195	165.113228822003	2
0	1198	165.21239548867	0
0	1200	166.037773227826	1
0	1202	166.136939894493	0
0	1204	166.169135576702	1
0	1206	166.242983472548	2
0	1209	166.342150139215	0
0	1211	167.003111014461	1
0	1213	167.102277681128	0
0	1215	167.20866918112	1
0	1217	167.307835847787	0
0	1219	167.623404254873	1
0	1221	167.72257092154	0
0	1223	167.730300793692	1
0	1225	167.829467460359	0
0	1227	168.359965675509	1
0	1229	168.459132342176	0
0	1231	169.11158199953	1
0	1233	169.210748666197	0
0	1235	169.562009806448	1
0	1237	169.661176473115	0
0	1239	169.795469834155	1
0	1241	169.894636500822	0
0	1243	171.171096516673	1
0	1245	171.27026318334	0
0	1247	171.564500055666	1
0	1249	171.663666722333	0
0	1251	171.767755504864	1
0	1253	171.866922171531	0
0	1255	172.837085155309	1
0	1257	172.846816883282	2
0	1259	172.848181330929	2
0	1263	172.947347997596	0
0	1265	174.428465299121	1
0	1267	174.527631965788	0
0	1269	174.804549372185	1
0	1271	174.903716038852	0
0	1273	175.592902542159	1
0	1275	175.692069208826	0
0	1277	176.210339158285	1
0	1279	176.309505824952	0
0	1281	177.027016060764	1
0	1283	177.126182727431	0
0	1285	177.425381961216	1
0	1287	177.524548627883	0
0	1289	178.248390110959	1
0	1291	178.347556777626	0
0	1293	178.432799938741	1
0	1295	178.531966605408	0
0	1297	178.758109206211	1
0	1299	178.857275872878	0
0	1301	179.219148632572	1
0	1303	179.318315299239	0
0	1305	179.395660643194	1
0	1307	179.494827309861	0
0	1309	180.407631468402	1
0	1311	180.506798135069	0
0	1313	180.602614427208	1
0	1315	180.701781093875	0
0	1317	181.433154916946	1
0	1319	181.532321583613	0
0	1321	181.705525255837	1
0	1323	181.804691922504	0
0	1325	181.840235585163	1
0	1327	181.93940225183	0
0	1329	182.034655818516	1
0	1331	182.065440248182	2
0	1334	182.164606914849	0
0	1336	182.408702139074	1
0	1338	182.493509255088	2
0	1341	182.592675921755	0
0	1343	183.834676638766	1
0	1345	183.933843305433	0
0	1347	184.241096544665	1
0	1349	184.340263211332	0
0	1351	184.367781355452	1
0	1353	184.463155915486	2
0	1356	184.562322582153	0
0	1358	188.438344860916	1
0	1360	188.537511527583	0
0	1362	189.125640905614	1
0	1364	189.224807572281	0
0	1366	189.440088990342	1
0	1368	189.539255657009	0
0	1370	190.04807073518	1
0	1372	190.099890809786	2
0	1375	190.199057476453	0
0	1377	190.598342740368	1
0	1379	190.697509407035	0
0	1381	190.970425633816	1
0	1383	191.069592300483	0
0	1385	191.334870496302	1
0	1387	191.434037162969	0
0	1389	191.632323201631	1
0	1391	191.731489868298	0
0	1393	193.364139189772	1
0	1395	193.463305856439	0
0	1397	194.58012839518	1
0	1399	194.679295061847	0
0	1401	194.747260132223	1
0	1403	194.844106560775	2
0	1406	194.943273227442	0
0	1408	195.366316640797	1
0	1410	195.465483307464	0
0	1412	195.808488705274	1
0	1414	195.907655371941	0
0	1416	195.943915637886	1
0	1418	195.964970374344	2
0	1421	196.064137041011	0
0	1423	196.277979150886	1
0	1425	196.377145817553	0
0	1427	196.529559518791	1
0	1429	196.558025082175	2
0	1432	196.657191748842	0
0	1434	196.694661961795	1
0	1436	196.793828628462	0
0	1438	198.264213083476	1
0	1440	198.363379750143	0
0	1442	198.84685642515	1
0	1444	198.946023091817	0
0	1446	199.38475324819	1
0	1448	199.483919914857	0
0	1450	200.681468017413	1
0	1452	200.78063468408	0
0	1454	201.172090339116	1
0	1456	201.248587115604	2
0	1459	201.272965312915	2
0	1462	201.370534528679	2
0	1465	201.469701195346	0
0	1467	201.791418942889	1
0	1469	201.890585609556	0
0	1471	202.107691277828	1
0	1473	202.206857944495	0
0	1475	202.786008021305	1
0	1477	202.885174687972	0
0	1479	203.053856077704	1
0	1481	203.092480574137	2
0	1484	203.191647240804	0
0	1486	203.79111239	1
0	1488	203.86248957642	2
0	1491	203.961656243087	0
0	1493	204.459427240114	1
0	1495	204.558593906781	0
0	1497	204.903419284	1
0	1499	205.002585950667	0
0	1501	205.528339249108	1
0	1503	205.569830864115	2
0	1506	205.668997530782	0
0	1508	206.526624663854	1
0	1510	206.552076061357	2
0	1513	206.651242728024	0
0	1515	207.491517121301	1
0	1517	207.590683787968	0
0	1519	208.002708593859	1
0	1521	208.101875260526	0
0	1523	208.993531862694	1
0	1525	209.092698529361	0
0	1527	209.259055529087	1
0	1529	209.358222195754	0
0	1531	209.573431073423	1
0	1533	209.67259774009	0
0	1535	210.237125745252	1
0	1537	210.266934526116	2
0	1540	210.366101192783	0
0	1542	211.579884602293	1
0	1544	211.649495542214	2
0	1547	211.748662208881	0
0	1549	212.240890689736	1
0	1551	212.243406392791	2
0	1554	212.342573059458	0
0	1556	212.809890748978	1
0	1558	212.909057415645	0
0	1560	213.743646786742	1
0	1562	213.798962773228	2
0	1565	213.898129439895	0
0	1567	214.135739357925	1
0	1569	214.234906024592	0
0	1571	214.62604455886	1
0	1573	214.725211225527	0
0	1575	215.053876121439	1
0	1577	215.153042788106	0
0	1579	215.729739858691	1
0	1581	215.828906525358	0
0	1583	215.846150453817	1
0	1585	215.945317120484	0
0	1587	216.367786624617	1
0	1589	216.466953291284	0
0	1591	216.603847571211	1
0	1593	216.703014237878	0
0	1595	216.835322864062	1
0	1597	216.934489530729	0
0	1599	217.007497160557	1
0	1601	217.077531668634	2
0	1604	217.176698335301	0
0	1606	217.441951602205	1
0	1608	217.541118268872	0
0	1610	217.738906207491	1
0	1612	217.782765564415	2
0	1615	217.858411692332	2
0	1618	217.957578358999	0
0	1620	218.397006589055	1
0	1622	218.496173255722	0
0	1624	218.535452774443	1
0	1626	218.63461944111	0
0	1628	219.024929075767	1
0	1630	219.124095742434	0
0	1632	219.157505221676	1
0	1634	219.256671888343	0
0	1636	219.397233397867	1
0	1638	219.479102637823	2
0	1641	219.57826930449	0
0	1643	220.105967556189	1
0	1645	220.205134222856	0
0	1647	220.525544278144	1
0	1649	220.541258067408	2
0	1652	220.640424734075	0
0	1654	221.205893732435	1
0	1656	221.305060399102	0
0	1658	222.378507428724	1
0	1660	222.477674095391	0
0	1662	222.542404588784	1
0	1664	222.641571255451	0
0	1666	224.217728372849	1
0	1668	224.316895039516	0
0	1670	224.916727748604	1
0	1672	225.015894415271	0
0	1674	225.67054492571	1
0	1676	225.769711592377	0
0	1678	226.071382164729	1
0	1680	226.170548831396	0
0	1682	226.587523818692	1
0	1684	226.686690485359	0
0	1686	226.711509009673	1
0	1688	226.81067567634	0
0	1690	226.968046061419	1
0	1692	227.067212728086	0
0	1694	227.314477119118	1
0	1696	227.413643785785	0
0	1698	227.908663375007	1
0	1700	228.007830041674	0
0	1702	228.154143761981	1
0	1704	228.193843211332	2
0	1707	228.293009877999	0
0	1709	228.34179649586	1
0	1711	228.397270343878	2
0	1714	228.496437010545	0
0	1716	228.552792642883	1
0	1718	228.65195930955	0
0	1720	228.658495223717	1
0	1722	228.757661890384	0
0	1724	229.008339804803	1
0	1726	229.10750647147	0
0	1728	229.403678625258	1
0	1730	229.502845291925	0
0	1732	230.647466349145	1
0	1734	230.746633015812	0
0	1736	231.822342504423	1
0	1738	231.92150917109	0
0	1740	232.829308574965	1
0	1742	232.928475241632	0
0	1744	233.480702293781	1
0	1746	233.579868960448	0
0	1748	233.624979599167	1
0	1750	233.724146265834	0
0	1752	233.974674882016	1
0	1754	234.005351228007	2
0	1757	234.073926973712	2
0	1760	234.173093640379	0
0	1762	234.201272685425	1
0	1764	234.300439352092	0
0	1766	234.742573437801	1
0	1768	234.841740104468	0
0	1770	235.546026310491	1
0	1772	235.645192977158	0
0	1774	235.919755561053	1
0	1776	236.01892222772	0
0	1778	236.100893594621	1
0	1780	236.200060261288	0
0	1782	236.734599959773	1
0	1784	236.83376662644	0
0	1786	237.22827329907	1
0	1788	237.327439965737	0
0	1790	238.577544962936	1
0	1792	238.647307706669	2
0	1795	238.746474373336	0
0	1797	239.493591100105	1
0	1799	239.592757766772	0
0	1801	239.682791393235	1
0	1803	239.781958059902	0
0	1805	240.000417222691	1
0	1807	240.099583889358	0
0	1809	240.744603068763	1
0	1811	240.84376973543	0
0	1813	241.652764409028	1
0	1815	241.6968442713	2
0	1818	241.796010937967	0
0	1820	241.81865647476	1
0	1822	241.917823141427	0
0	1824	242.882531175183	1
0	1826	242.98169784185	0
0	1828	243.008577622099	1
0	1830	243.107744288766	0
0	1832	243.355444679813	1
0	1834	243.45461134648	0
0	1836	244.021647950134	1
0	1838	244.110122429063	2
0	1841	244.20928909573	0
0	1843	244.792263522152	1
0	1845	244.798917373951	2
0	1848	244.898084040618	0
0	1850	244.9427166099	1
0	1852	245.041883276567	0
0	1854	245.0568655495	1
0	1856	245.156032216167	0
0	1858	245.875726617437	1
0	1860	245.974893284104	0
0	1862	246.857256895886	1
0	1864	246.880147299313	2
0	1866	246.884098729959	2
0	1870	246.983265396626	0
0	1872	247.353505691366	1
0	1874	247.452672358033	0
0	1876	247.464976667263	1
0	1878	247.56414333393	0
0	1880	248.241081436621	1
0	1882	248.340248103288	0
0	1884	248.928811355723	1
0	1886	249.02797802239	0
0	1888	249.210249782255	1
0	1890	249.309416448922	0
0	1892	249.920149261999	1
0	1894	249.944775785402	2
0	1897	250.043942452069	0
0	1899	250.167941927851	1
0	1901	250.267108594518	0
0	1903	250.537305750189	1
0	1905	250.636472416856	0
0	1907	250.719400711267	1
0	1909	250.778331369814	2
0	1912	250.877498036481	0
0	1914	251.838139265911	1
0	1916	251.937305932578	0
0	1918	252.163927531543	1
0	1920	252.26309419821	0
0	1922	252.581150183091	1
0	1924	252.581634937736	2
0	1927	252.680801604403	0
0	1929	253.77337698113	1
0	1931	253.872543647797	0
0	1933	254.569908024233	1
0	1935	254.6690746909	0
0	1937	256.679274661916	1
0	1939	256.778441328583	0
0	1941	256.846345060168	1
0	1943	256.945511726835	0
0	1945	257.224271719386	1
0	1947	257.323438386053	0
0	1949	257.5104305309	1
0	1951	257.609597197567	0
0	1953	257.856487193704	1
0	1955	257.901513548876	2
0	1958	258.000680215543	0
0	1960	258.480464574743	1
0	1962	258.57963124141	0
0	1964	258.665534926345	1
0	1966	258.764701593012	0
0	1968	258.903671451228	1
0	1970	259.002838117895	0
0	1972	259.778583599058	1
0	1974	259.877750265725	0
0	1976	260.409763475981	1
0	1978	260.508930142648	0
0	1980	260.7325378579	1
0	1982	260.806739535847	2
0	1985	260.905906202514	0
0	1987	261.108777064464	1
0	1989	261.207943731131	0
0	1991	261.357462718319	1
0	1993	261.406367250492	2
0	1996	261.505533917159	0
0	1998	263.200716162134	1
0	2000	263.299882828801	0
0	2002	265.474697929088	1
0	2004	265.512768077283	2
0	2007	265.61193474395	0
0	2009	266.582094682823	1
0	2011	266.68126134949	0
0	2013	267.878600714144	1
0	2015	267.977767380811	0
0	2017	269.876911255911	1
0	2019	269.951944223176	2
0	2022	270.051110889843	0
0	2024	270.41212162999	1
0	2026	270.511288296657	0
0	2028	270.656088384244	1
0	2030	270.755255050911	0
0	2032	270.881959851509	1
0	2034	270.981126518176	0
0	2036	271.582412479252	1
0	2038	271.681579145919	0
0	2040	271.909681353653	1
0	2042	272.00884802032	0
0	2044	272.516370994252	1
0	2046	272.549443033995	2
0	2049	272.648609700662	0
0	2051	273.023642097591	1
0	2053	273.122808764258	0
0	2055	273.212705131907	1
0	2057	273.265282362308	2
0	2060	273.364449028975	0
0	2062	273.866892419537	1
0	2064	273.966059086204	0
0	2066	274.377620610162	1
0	2068	274.476787276829	0
0	2070	274.55334781609	1
0	2072	274.637378615864	2
0	2075	274.736545282531	0
0	2077	275.118965521516	1
0	2079	275.218132188183	0
0	2081	275.747777559217	1
0	2083	275.846944225884	0
0	2085	275.892679475217	1
0	2087	275.991846141884	0
0	2089	276.082416418658	1
0	2091	276.181583085325	0
0	2093	276.516806186117	1
0	2095	276.576144952304	2
0	2098	276.675311618971	0
0	2100	276.830918964556	1
0	2102	276.930085631223	0
0	2104	277.565728271732	1
0	2106	277.664894938399	0
0	2108	277.823970464104	1
0	2110	277.923137130771	0
0	2112	278.230904900836	1
0	2114	278.330071567503	0
0	2116	278.615193698535	1
0	2118	278.665381254357	2
0	2121	278.764547921024	0
0	2123	279.728878068358	1
0	2125	279.828044735025	0
0	2127	279.893412543073	1
0	2129	279.99257920974	0
0	2131	280.74197658038	1
0	2133	280.841143247047	0
0	2135	281.387726685422	1
0	2137	281.486893352089	0
0	2139	282.16667505358	1
0	2141	282.265841720247	0
0	2143	282.810463851102	1
0	2145	282.819622386664	2
0	2148	282.918789053331	0
0	2150	283.018784218885	1
0	2152	283.117950885552	0
0	2154	283.343060405575	1
0	2156	283.442227072242	0
0	2158	283.465249487821	1
0	2160	283.564416154488	0
0	2162	285.911917827319	1
0	2164	285.964821327911	2
0	2167	286.063987994578	0
0	2169	286.383739638367	1
0	2171	286.482906305034	0
0	2173	286.968257990819	1
0	2175	287.067424657486	0
0	2177	287.096909037044	1
0	2179	287.196075703711	0
0	2181	289.353888949221	1
0	2183	289.453055615888	0
0	2185	289.843535414365	1
0	2187	289.942702081032	0
0	2189	290.08589329241	1
0	2191	290.185059959077	0
0	2193	290.190222412242	1
0	2195	290.275988104675	2
0	2198	290.375154771342	0
0	2200	290.517032405092	1
0	2202	290.547968767502	2
0	2205	290.647135434169	0
0	2207	291.728722240935	1
0	2209	291.827888907602	0
0	2211	292.573901329243	1
0	2213	292.67306799591	0
0	2215	294.444187630699	1
0	2217	294.543354297366	0
0	2219	294.769485835355	1
0	2221	294.802780340448	2
0	2224	294.901947007115	0
0	2226	295.243997665233	1
0	2228	295.3431643319	0
0	2230	295.855832477131	1
0	2232	295.905836892953	2
0	2235	296.00500355962	0
0	2237	296.020551255318	1
0	2239	296.119717921985	0
0	2241	296.583650485277	1
0	2243	296.682817151944	0
0	2245	296.793359781526	1
0	2247	296.892526448193	0
0	2249	297.574238831673	1
0	2251	297.617168509804	2
0	2254	297.716335176471	0
0	2256	297.936385516216	1
0	2258	298.035552182883	0
0	2260	298.274988381894	1
0	2262	298.354758043875	2
0	2265	298.453924710542	0
0	2267	298.507022772204	1
0	2269	298.606189438871	0
0	2271	300.386308909455	1
0	2273	300.485475576122	0