version 3
run PureAlohaExperiment-34-20260306-12:10:22-8840
attr configname PureAlohaExperiment
attr datetime 20260306-12:10:22
attr datetimef 20260306-121022
attr experiment PureAlohaExperiment
attr inifile omnetpp.ini
attr iterationvars "$numHosts=20, $iaMean=4"
attr iterationvarsd numHosts=20/iaMean=4
attr iterationvarsf numHosts=20,iaMean=4-
attr measurement "$numHosts=20, $iaMean=4"
attr network Aloha
attr processid 8840
attr repetition 0
attr replication #0
attr resultdir results
attr runnumber 34
attr seedset 34
itervar iaMean 4
itervar numHosts 20
config description "Channel utilization in the function of packet generation frequency"
config repeat 2
config sim-time-limit 90min
config Aloha.numHosts 20
config Aloha.host[*].iaTime exponential(4s)
config network Aloha
config Aloha.numHosts 20
config Aloha.slotTime 0s
config Aloha.txRate 9.6kbps
config Aloha.host[*].pkLenBits 952b
config **.x "uniform(0m, 1000m)"
config **.y "uniform(0m, 1000m)"
config **.animationHoldTimeOnCollision 0s
config **.idleAnimationSpeed 1
config **.transmissionEdgeAnimationSpeed 1e-6
config **.midTransmissionAnimationSpeed 1e-1

vector 0 Aloha.server serverChannelState:vector ETV
attr enum IDLE=0,TRANSMISSION=1,COLLISION=2
attr recordingmode vector
attr source channelState
attr title "Channel state"
vector 1 Aloha.host[0] radioState:vector ETV
attr enum IDLE=0,TRANSMIT=1
attr recordingmode vector
attr source state
attr title "Radio state"
vector 2 Aloha.host[1] radioState:vector ETV
attr enum IDLE=0,TRANSMIT=1
attr recordingmode vector
attr source state
attr title "Radio state"
vector 3 Aloha.host[2] radioState:vector ETV
attr enum IDLE=0,TRANSMIT=1
attr recordingmode vector
attr source state
attr title "Radio state"
vector 4 Aloha.host[3] radioState:vector ETV
attr enum IDLE=0,TRANSMIT=1
attr recordingmode vector
attr source state
attr title "Radio state"
vector 5 Aloha.host[4] radioState:vector ETV
attr enum IDLE=0,TRANSMIT=1
attr recordingmode vector
attr source state
attr title "Radio state"
vector 6 Aloha.host[5] radioState:vector ETV
attr enum IDLE=0,TRANSMIT=1
attr recordingmode vector
attr source state
attr title "Radio state"
vector 7 Aloha.host[6] radioState:vector ETV
attr enum IDLE=0,TRANSMIT=1
attr recordingmode vector
attr source state
attr title "Radio state"
vector 8 Aloha.host[7] radioState:vector ETV
attr enum IDLE=0,TRANSMIT=1
attr recordingmode vector
attr source state
attr title "Radio state"
vector 9 Aloha.host[8] radioState:vector ETV
attr enum IDLE=0,TRANSMIT=1
attr recordingmode vector
attr source state
attr title "Radio state"
vector 10 Aloha.host[9] radioState:vector ETV
attr enum IDLE=0,TRANSMIT=1
attr recordingmode vector
attr source state
attr title "Radio state"
vector 11 Aloha.host[10] radioState:vector ETV
attr enum IDLE=0,TRANSMIT=1
attr recordingmode vector
attr source state
attr title "Radio state"
vector 12 Aloha.host[11] radioState:vector ETV
attr enum IDLE=0,TRANSMIT=1
attr recordingmode vector
attr source state
attr title "Radio state"
vector 13 Aloha.host[12] radioState:vector ETV
attr enum IDLE=0,TRANSMIT=1
attr recordingmode vector
attr source state
attr title "Radio state"
vector 14 Aloha.host[13] radioState:vector ETV
attr enum IDLE=0,TRANSMIT=1
attr recordingmode vector
attr source state
attr title "Radio state"
vector 15 Aloha.host[14] radioState:vector ETV
attr enum IDLE=0,TRANSMIT=1
attr recordingmode vector
attr source state
attr title "Radio state"
vector 16 Aloha.host[15] radioState:vector ETV
attr enum IDLE=0,TRANSMIT=1
attr recordingmode vector
attr source state
attr title "Radio state"
vector 17 Aloha.host[16] radioState:vector ETV
attr enum IDLE=0,TRANSMIT=1
attr recordingmode vector
attr source state
attr title "Radio state"
vector 18 Aloha.host[17] radioState:vector ETV
attr enum IDLE=0,TRANSMIT=1
attr recordingmode vector
attr source state
attr title "Radio state"
vector 19 Aloha.host[18] radioState:vector ETV
attr enum IDLE=0,TRANSMIT=1
attr recordingmode vector
attr source state
attr title "Radio state"
vector 20 Aloha.host[19] radioState:vector ETV
attr enum IDLE=0,TRANSMIT=1
attr recordingmode vector
attr source state
attr title "Radio state"
vector 21 Aloha.server channelUtilizationVector:vector ETV
attr interpolationmode linear
attr recordingmode vector
attr source timeavg(receive)
attr title "channel utilization evolution"
0	0	0	0
0	2	0.045006334435	1
0	4	0.144173001102	0
0	6	0.338708853138	1
0	8	0.437875519805	0
0	10	0.682844180639	1
0	12	0.768000906292	2
0	15	0.867167572959	0
0	17	0.917577502594	1
0	19	0.953569841821	2
0	22	1.052736508488	0
0	24	1.623819445918	1
0	26	1.722986112585	0
0	28	1.948280921242	1
0	30	2.047447587909	0
0	32	2.145988353404	1
0	34	2.231735000643	2
0	37	2.268087765548	2
0	40	2.349012719264	2
0	43	2.448179385931	0
0	45	2.55870580271	1
0	47	2.657872469377	0
0	49	3.036933352527	1
0	51	3.128344092116	2
0	54	3.227510758783	0
0	56	3.253030153591	1
0	58	3.352196820258	0
0	60	4.866566374112	1
0	62	4.965733040779	0
0	64	5.015003035438	1
0	66	5.114169702105	0
0	68	6.142036876138	1
0	70	6.241203542805	0
0	72	7.442236348591	1
0	74	7.541403015258	0
0	76	7.875005200671	1
0	78	7.906650563055	2
0	81	7.980922215418	2
0	84	8.080088882085	0
0	86	8.433985944696	1
0	88	8.533152611363	0
0	90	8.823346192828	1
0	92	8.922512859495	0
0	94	8.954018435162	1
0	96	9.053185101829	0
0	98	9.247925865042	1
0	100	9.347092531709	0
0	102	9.393267167103	1
0	104	9.49243383377	0
0	106	9.562822802599	1
0	108	9.577571814454	2
0	110	9.639937271121	2
0	113	9.668153819653	2
0	116	9.717888030083	2
0	118	9.73206761015	2
0	122	9.8126668939	2
0	126	9.846802650151	2
0	129	9.945969316818	0
0	131	9.968573372917	1
0	133	10.067740039584	0
0	135	10.180593644568	1
0	137	10.279760311235	0
0	139	10.652296995692	1
0	141	10.751463662359	0
0	143	10.829077514655	1
0	145	10.928244181322	0
0	147	11.079178557953	1
0	149	11.17834522462	0
0	151	11.308081322775	1
0	153	11.317372594318	2
0	155	11.330827738491	2
0	159	11.429994405158	0
0	161	11.702394798484	1
0	163	11.801561465151	0
0	165	11.895053912774	1
0	167	11.967372187609	2
0	170	12.066538854276	0
0	172	12.099839473748	1
0	174	12.199006140415	0
0	176	12.310171010151	1
0	178	12.409337676818	0
0	180	12.450101287323	1
0	182	12.54557452738	2
0	185	12.644741194047	0
0	187	12.652393378366	1
0	189	12.751560045033	0
0	191	12.938420184466	1
0	193	13.037586851133	0
0	195	13.170781112308	1
0	197	13.269947778975	0
0	199	13.495222287103	1
0	201	13.523975993086	2
0	203	13.553868830694	2
0	207	13.653035497361	0
0	209	13.824136934397	1
0	211	13.91222376459	2
0	214	14.011390431257	0
0	216	14.283325470416	1
0	218	14.325167821621	2
0	221	14.424334488288	0
0	223	14.466291445301	1
0	225	14.485732323675	2
0	228	14.584898990342	0
0	230	14.692959297051	1
0	232	14.756777067267	2
0	235	14.855943733934	0
0	237	15.25567097766	1
0	239	15.334453126153	2
0	242	15.43361979282	0
0	244	15.931444452477	1
0	246	15.979861402548	2
0	249	16.035651570959	2
0	252	16.107034090034	2
0	255	16.206200756701	0
0	257	16.234486232924	1
0	259	16.333652899591	0
0	261	16.386727762602	1
0	263	16.485894429269	0
0	265	16.592701931306	1
0	267	16.653751489535	2
0	270	16.752918156202	0
0	272	16.843788095087	1
0	274	16.86794831154	2
0	276	16.912317098018	2
0	280	17.011483764685	0
0	282	17.739249388483	1
0	284	17.83841605515	0
0	286	18.016347771775	1
0	288	18.115514438442	0
0	290	18.344650049401	1
0	292	18.359581473259	2
0	294	18.370936472565	2
0	298	18.467118035	2
0	301	18.566284701667	0
0	303	18.825560116285	1
0	305	18.924726782952	0
0	307	18.964972735044	1
0	309	19.064139401711	0
0	311	19.400388211741	1
0	313	19.499554878408	0
0	315	19.514131658489	1
0	317	19.613298325156	0
0	319	19.681455605647	1
0	321	19.780622272314	0
0	323	19.84871110122	1
0	325	19.947877767887	0
0	327	20.234383930969	1
0	329	20.333550597636	0
0	331	20.611301128629	1
0	333	20.710467795296	0
0	335	20.745925606601	1
0	337	20.815902361339	2
0	340	20.88687159018	2
0	343	20.986038256847	0
0	345	21.257167824524	1
0	347	21.356334491191	0
0	349	21.429611893607	1
0	351	21.528778560274	0
0	353	21.692615608384	1
0	355	21.791782275051	0
0	357	22.23390187265	1
0	359	22.333068539317	0
0	361	22.918608199805	1
0	363	23.017774866472	0
0	365	23.138960200494	1
0	367	23.191579153961	2
0	370	23.290745820628	0
0	372	24.282522875802	1
0	374	24.37900042277	2
0	377	24.478167089437	0
0	379	24.819756353853	1
0	381	24.878019274098	2
0	384	24.962257554696	2
0	387	25.034717404529	2
0	390	25.133884071196	0
0	392	25.243171824594	1
0	394	25.342338491261	0
0	396	25.436750891925	1
0	398	25.535917558592	0
0	400	25.63459683474	1
0	402	25.733763501407	0
0	404	26.061789952268	1
0	406	26.160956618935	0
0	408	26.640531740138	1
0	410	26.739698406805	0
0	412	26.773276067602	1
0	414	26.872442734269	0
0	416	27.093231450941	1
0	418	27.192398117608	0
0	420	27.989910303169	1
0	422	28.089076969836	0
0	424	28.272767622775	1
0	426	28.354857336893	2
0	429	28.433922648894	2
0	432	28.533089315561	0
0	434	28.612489155681	1
0	436	28.711655822348	0
0	438	28.917910630422	1
0	440	29.017077297089	0
0	442	29.514461308548	1
0	444	29.613627975215	0
0	446	29.628669147032	1
0	448	29.718692761069	2
0	451	29.817859427736	0
0	453	30.030781666931	1
0	455	30.129948333598	0
0	457	30.839889937627	1
0	459	30.939056604294	0
0	461	31.691099866608	1
0	463	31.707125023803	2
0	466	31.80629169047	0
0	468	31.828140213454	1
0	470	31.927306880121	0
0	472	32.159807277374	1
0	474	32.16586102686	2
0	477	32.265027693527	0
0	479	32.310214887328	1
0	481	32.409381553995	0
0	483	32.491340488213	1
0	485	32.59050715488	0
0	487	32.621346831505	1
0	489	32.720513498172	0
0	491	33.144406568438	1
0	493	33.243573235105	0
0	495	33.668596207101	1
0	497	33.767762873768	0
0	499	33.983454645274	1
0	501	34.082621311941	0
0	503	34.09712366991	1
0	505	34.196290336577	0
0	507	34.276162680846	1
0	509	34.375329347513	0
0	511	34.417923499727	1
0	513	34.516785343162	2
0	516	34.607318737739	2
0	519	34.706485404406	0
0	521	35.302695354947	1
0	523	35.382393950705	2
0	526	35.481560617372	0
0	528	35.580081019559	1
0	530	35.679247686226	0
0	532	35.686416870646	1
0	534	35.708186341952	2
0	537	35.796787338288	2
0	540	35.82677773338	2
0	543	35.925944400047	0
0	545	36.041853726654	1
0	547	36.068584195681	2
0	549	36.119655252534	2
0	553	36.213786970745	2
0	556	36.312953637412	0
0	558	37.277652850929	1
0	560	37.376819517596	0
0	562	37.391245363466	1
0	564	37.410063965542	2
0	567	37.509230632209	0
0	569	37.948499747087	1
0	571	38.033955535801	2
0	574	38.133122202468	0
0	576	38.473151982164	1
0	578	38.572318648831	0
0	580	38.937811120401	1
0	582	39.036977787068	0
0	584	39.566837837962	1
0	586	39.666004504629	0
0	588	39.900185161042	1
0	590	39.910511147213	2
0	592	39.923997329601	2
0	596	40.023163996268	0
0	598	40.133775905459	1
0	600	40.232942572126	0
0	602	40.672904474677	1
0	604	40.772071141344	0
0	606	41.267593310971	1
0	608	41.366759977638	0
0	610	41.408569900494	1
0	612	41.507736567161	0
0	614	41.628534801091	1
0	616	41.639656825137	2
0	618	41.695846639119	2
0	622	41.795013305786	0
0	624	41.802385764263	1
0	626	41.90155243093	0
0	628	42.107076228037	1
0	630	42.206242894704	0
0	632	42.369209171238	1
0	634	42.468375837905	0
0	636	42.901676819421	1
0	638	43.000843486088	0
0	640	43.324348396038	1
0	642	43.423515062705	0
0	644	43.661608409213	1
0	646	43.76077507588	0
0	648	43.901703279794	1
0	650	44.000869946461	0
0	652	44.065842424539	1
0	654	44.165009091206	0
0	656	44.28400789896	1
0	658	44.341034609506	2
0	661	44.440201276173	0
0	663	44.513950019855	1
0	665	44.589096607434	2
0	668	44.688263274101	0
0	670	44.982455466616	1
0	672	45.014760929421	2
0	675	45.095390440458	2
0	678	45.194557107125	0
0	680	45.22158815604	1
0	682	45.320754822707	0
0	684	45.335985800341	1
0	686	45.435152467008	0
0	688	45.506786222444	1
0	690	45.605952889111	0
0	692	46.019719764054	1
0	694	46.118886430721	0
0	696	46.346315689987	1
0	698	46.445482356654	0
0	700	46.603057518503	1
0	702	46.669175940499	2
0	705	46.768342607166	0
0	707	46.926377289024	1
0	709	47.025543955691	0
0	711	47.079315915776	1
0	713	47.109333961845	2
0	715	47.160822177993	2
0	718	47.188087264729	2
0	722	47.287253931396	0
0	724	47.447341435854	1
0	726	47.487897934523	2
0	728	47.494054338005	2
0	732	47.593221004672	0
0	734	47.727312944584	1
0	736	47.826479611251	0
0	738	48.00511677984	1
0	740	48.01886994065	2
0	743	48.11711781184	2
0	746	48.216284478507	0
0	748	48.469127145895	1
0	750	48.568293812562	0
0	752	48.790526488052	1
0	754	48.798513971773	2
0	757	48.89768063844	0
0	759	49.074555610092	1
0	761	49.121640851823	2
0	764	49.22080751849	0
0	766	49.434508620508	1
0	768	49.500881097365	2
0	770	49.512333810324	2
0	774	49.611500476991	0
0	776	49.675274059381	1
0	778	49.68100765454	2
0	780	49.74958264426	2
0	784	49.794603666747	2
0	787	49.893770333414	0
0	789	49.947726549113	1
0	791	50.04689321578	0
0	793	50.666703024037	1
0	795	50.752983029925	2
0	798	50.788568815499	2
0	801	50.887735482166	0
0	803	50.938325590063	1
0	805	50.987625323434	2
0	807	50.992532102777	2
0	811	51.091698769444	0
0	813	51.213840023501	1
0	815	51.247445771145	2
0	818	51.346612437812	0
0	820	51.458396518822	1
0	822	51.481512350967	2
0	824	51.517921998888	2
0	828	51.617088665555	0
0	830	51.739232115829	1
0	832	51.838398782496	0
0	834	51.983850265787	1
0	836	52.000531994557	2
0	839	52.099698661224	0
0	841	52.214049368385	1
0	843	52.313216035052	0
0	845	52.443784296924	1
0	847	52.461943406472	2
0	850	52.561110073139	0
0	852	52.873625657758	1
0	854	52.972792324425	0
0	856	53.33788997851	1
0	858	53.425173992864	2
0	861	53.524340659531	0
0	863	54.070481820343	1
0	865	54.16964848701	0
0	867	54.50189167981	1
0	869	54.601058346477	0
0	871	54.881102758492	1
0	873	54.916756926374	2
0	876	55.015923593041	0
0	878	55.813893531713	1
0	880	55.872484044967	2
0	883	55.971650711634	0
0	885	56.065032701192	1
0	887	56.164199367859	0
0	889	56.250403071266	1
0	891	56.349569737933	0
0	893	56.495168983522	1
0	895	56.594335650189	0
0	897	56.627188130575	1
0	899	56.726354797242	0
0	901	56.929406793538	1
0	903	56.97210561652	2
0	906	57.071272283187	0
0	908	57.127745739624	1
0	910	57.154359531764	2
0	913	57.253526198431	0
0	915	57.31992488035	1
0	917	57.397153114001	2
0	920	57.496319780668	0
0	922	58.559210320114	1
0	924	58.658376986781	0
0	926	58.739156076098	1
0	928	58.744813079725	2
0	931	58.843979746392	0
0	933	59.09934744398	1
0	935	59.099989166259	2
0	937	59.111194050335	2
0	941	59.210360717002	0
0	943	59.304697947061	1
0	945	59.328522614567	2
0	948	59.427689281234	0
0	950	59.495912525079	1
0	952	59.595079191746	0
0	954	59.748646852346	1
0	956	59.847813519013	0
0	958	60.699791168709	1
0	960	60.798957835376	0
0	962	60.988689466856	1
0	964	61.062817173069	2
0	967	61.161983839736	0
0	969	61.165522408931	1
0	971	61.175131555822	2
0	973	61.177089273981	2
0	975	61.186759093142	2
0	980	61.285565026103	2
0	983	61.305390451566	2
0	986	61.404557118233	0
0	988	61.515088557504	1
0	990	61.614255224171	0
0	992	61.776197638318	1
0	994	61.875364304985	0
0	996	61.960495025515	1
0	998	61.980743521676	2
0	1000	62.005198949833	2
0	1004	62.1043656165	0
0	1006	62.203345540346	1
0	1008	62.302512207013	0
0	1010	62.303976373075	1
0	1012	62.33697162013	2
0	1015	62.436138286797	0
0	1017	62.463193964365	1
0	1019	62.562360631032	0
0	1021	62.610428048474	1
0	1023	62.709594715141	0
0	1025	62.776912329791	1
0	1027	62.876078996458	0
0	1029	63.245491390925	1
0	1031	63.302885379937	2
0	1034	63.361781276263	2
0	1037	63.45487357886	2
0	1040	63.554040245527	0
0	1042	63.725802028159	1
0	1044	63.824968694826	0
0	1046	63.905217146221	1
0	1048	64.004383812888	0
0	1050	64.046483459785	1
0	1052	64.145650126452	0
0	1054	64.164733358618	1
0	1056	64.263900025285	0
0	1058	64.471897922186	1
0	1060	64.571064588853	0
0	1062	64.826217565579	1
0	1064	64.925384232246	0
0	1066	65.187354078188	1
0	1068	65.237921567305	2
0	1071	65.337088233972	0
0	1073	65.359507991505	1
0	1075	65.458674658172	0
0	1077	65.471657484838	1
0	1079	65.539840653704	2
0	1082	65.580778939177	2
0	1085	65.679945605844	0
0	1087	65.941212972194	1
0	1089	66.040379638861	0
0	1091	66.160308847571	1
0	1093	66.259475514238	0
0	1095	66.408190507381	1
0	1097	66.507357174048	0
0	1099	66.564456769168	1
0	1101	66.663623435835	0
0	1103	66.666742360656	1
0	1105	66.765909027323	0
0	1107	67.03702902415	1
0	1109	67.08146800901	2
0	1111	67.123490542247	2
0	1115	67.196632749275	2
0	1118	67.233799546573	2
0	1121	67.33296621324	0
0	1123	68.087270168933	1
0	1125	68.1864368356	0
0	1127	68.285616893063	1
0	1129	68.38478355973	0
0	1131	68.796904034655	1
0	1133	68.896070701322	0
0	1135	69.738240436797	1
0	1137	69.79097364803	2
0	1140	69.890140314697	0
0	1142	69.937549470558	1
0	1144	69.965557312641	2
0	1147	70.064723979308	0
0	1149	70.184162515072	1
0	1151	70.191623789108	2
0	1154	70.290790455775	0
0	1156	70.33198328501	1
0	1158	70.338942231856	2
0	1161	70.438108898523	0
0	1163	70.491810298251	1
0	1165	70.496548227734	2
0	1167	70.510925260923	2
0	1169	70.51484158634	2
0	1174	70.614008253007	0
0	1176	70.640137972256	1
0	1178	70.739304638923	0
0	1180	70.772572204943	1
0	1182	70.817368966098	2
0	1185	70.916535632765	0
0	1187	71.357064296808	1
0	1189	71.396237873565	2
0	1192	71.495404540232	0
0	1194	71.950772911584	1
0	1196	72.049939578251	0
0	1198	72.051994955543	1
0	1200	72.15116162221	0
0	1202	72.186828601337	1
0	1204	72.285995268004	0
0	1206	72.60123414746	1
0	1208	72.700400814127	0
0	1210	73.506098857302	1
0	1212	73.605265523969	0
0	1214	73.642320940322	1
0	1216	73.741487606989	0
0	1218	73.990069023842	1
0	1220	74.089235690509	0
0	1222	74.121117207907	1
0	1224	74.220283874574	0
0	1226	74.606654506179	1
0	1228	74.705821172846	0
0	1230	74.864346934182	1
0	1232	74.963513600849	0
0	1234	75.032938425123	1
0	1236	75.108955896811	2
0	1239	75.208122563478	0
0	1241	75.368383376417	1
0	1243	75.467550043084	0
0	1245	75.468804343483	1
0	1247	75.489344241666	2
0	1250	75.588510908333	0
0	1252	75.723509145135	1
0	1254	75.822675811802	0
0	1256	76.297449763936	1
0	1258	76.396616430603	0
0	1260	76.595076316563	1
0	1262	76.69424298323	0
0	1264	76.696785654276	1
0	1266	76.795952320943	0
0	1268	77.500567525079	1
0	1270	77.535434645433	2
0	1272	77.553547430809	2
0	1276	77.652714097476	0
0	1278	77.662461858204	1
0	1280	77.761628524871	0
0	1282	77.84384041496	1
0	1284	77.925453378662	2
0	1287	77.978180509335	2
0	1290	78.077347176002	0
0	1292	78.190903470227	1
0	1294	78.290070136894	0
0	1296	78.494928770992	1
0	1298	78.594095437659	0
0	1300	79.395181904595	1
0	1302	79.459095151615	2
0	1305	79.517355193762	2
0	1308	79.616521860429	0
0	1310	79.626622590202	1
0	1312	79.725789256869	0
0	1314	79.9394939143	1
0	1316	80.038660580967	0
0	1318	80.161656089338	1
0	1320	80.260822756005	0
0	1322	80.42442326183	1
0	1324	80.428991077548	2
0	1327	80.528157744215	0
0	1329	80.734544724318	1
0	1331	80.833711390985	0
0	1333	80.995365950312	1
0	1335	81.094532616979	0
0	1337	81.142302348567	1
0	1339	81.241469015234	0
0	1341	81.338215898686	1
0	1343	81.395603269474	2
0	1346	81.494769936141	0
0	1348	81.622319250393	1
0	1350	81.689108369761	2
0	1353	81.723935825731	2
0	1356	81.823102492398	0
0	1358	81.83510839102	1
0	1360	81.934275057687	0
0	1362	81.95723797262	1
0	1364	82.056404639287	0
0	1366	82.345926746793	1
0	1368	82.390287003931	2
0	1370	82.415895655082	2
0	1374	82.515062321749	0
0	1376	82.54072967009	1
0	1378	82.639896336757	0
0	1380	82.696748585139	1
0	1382	82.747532630359	2
0	1385	82.846699297026	0
0	1387	82.847707122573	1
0	1389	82.946795196522	2
0	1392	82.984968898307	2
0	1395	83.084135564974	0
0	1397	83.125086210514	1
0	1399	83.224252877181	0
0	1401	83.734976007724	1
0	1403	83.834142674391	0
0	1405	83.995267073634	1
0	1407	84.012429931958	2
0	1410	84.111596598625	0
0	1412	84.907002062801	1
0	1414	85.006168729468	0
0	1416	85.092724044603	1
0	1418	85.19189071127	0
0	1420	85.723923376077	1
0	1422	85.809039934156	2
0	1425	85.908206600823	0
0	1427	86.018470659085	1
0	1429	86.088224227138	2
0	1432	86.187390893805	0
0	1434	86.308355301602	1
0	1436	86.407521968269	0
0	1438	86.552279349274	1
0	1440	86.651446015941	0
0	1442	86.657729349014	1
0	1444	86.756896015681	0
0	1446	86.77202798325	1
0	1448	86.849236390396	2
0	1451	86.948403057063	0
0	1453	87.191741104807	1
0	1455	87.273417202336	2
0	1458	87.372583869003	0
0	1460	87.982483666661	1
0	1462	88.081650333328	0
0	1464	88.52164328066	1
0	1466	88.575205345162	2
0	1469	88.674372011829	0
0	1471	89.060687859865	1
0	1473	89.159854526532	0
0	1475	89.952983292482	1
0	1477	90.052149959149	0
0	1479	90.175375842841	1
0	1481	90.215451293901	2
0	1483	90.233098855504	2
0	1487	90.332265522171	0
0	1489	90.479667716065	1
0	1491	90.578834382732	0
0	1493	90.600057895574	1
0	1495	90.694443854598	2
0	1498	90.793610521265	0
0	1500	91.058688015691	1
0	1502	91.071706505185	2
0	1505	91.170873171852	0
0	1507	91.343597071761	1
0	1509	91.442763738428	0
0	1511	91.682132241778	1
0	1513	91.781298908445	0
0	1515	91.805477811249	1
0	1517	91.812987041247	2
0	1520	91.912153707914	0
0	1522	92.105913387554	1
0	1524	92.205080054221	0
0	1526	92.221876122039	1
0	1528	92.321042788706	0
0	1530	92.404176937538	1
0	1532	92.503343604205	0
0	1534	92.636838511311	1
0	1536	92.736005177978	0
0	1538	92.796505104547	1
0	1540	92.895671771214	0
0	1542	93.391686409356	1
0	1544	93.490853076023	0
0	1546	93.55116036862	1
0	1548	93.632790851632	2
0	1551	93.71594925067	2
0	1554	93.815115917337	0
0	1556	93.904107931452	1
0	1558	94.003274598119	0
0	1560	94.04030049158	1
0	1562	94.139467158247	0
0	1564	94.154757367841	1
0	1566	94.253924034508	0
0	1568	94.297216449199	1
0	1570	94.396383115866	0
0	1572	94.404053852381	1
0	1574	94.503220519048	0
0	1576	94.703737468329	1
0	1578	94.802904134996	0
0	1580	94.916433108765	1
0	1582	95.015599775432	0
0	1584	95.212118295874	1
0	1586	95.311284962541	0
0	1588	96.608404799948	1
0	1590	96.616923466673	2
0	1592	96.689040189209	2
0	1596	96.740955952831	2
0	1599	96.840122619498	0
0	1601	96.977370867033	1
0	1603	97.0765375337	0
0	1605	97.18164251181	1
0	1607	97.195100907101	2
0	1610	97.294267573768	0
0	1612	97.444336866766	1
0	1614	97.510369142152	2
0	1617	97.609535808819	0
0	1619	97.830262148658	1
0	1621	97.929428815325	0
0	1623	98.082267868499	1
0	1625	98.181434535166	0
0	1627	98.466543053881	1
0	1629	98.565709720548	0
0	1631	98.753693170273	1
0	1633	98.85285983694	0
0	1635	98.883767279247	1
0	1637	98.90700952541	2
0	1640	99.006176192077	0
0	1642	99.145458324888	1
0	1644	99.244624991555	0
0	1646	99.26610132709	1
0	1648	99.27355646237	2
0	1650	99.3320327049	2
0	1654	99.431199371567	0
0	1656	99.505869967368	1
0	1658	99.594109644708	2
0	1661	99.693276311375	0
0	1663	99.81107594716	1
0	1665	99.910242613827	0
0	1667	100.102915460988	1
0	1669	100.202082127655	0
0	1671	100.315308178061	1
0	1673	100.35477762793	2
0	1676	100.453944294597	0
0	1678	100.91693249644	1
0	1680	100.980726571993	2
0	1683	101.07989323866	0
0	1685	101.119277354719	1
0	1687	101.218444021386	0
0	1689	101.930954408268	1
0	1691	102.030121074935	0
0	1693	102.049006602809	1
0	1695	102.148173269476	0
0	1697	102.318980490949	1
0	1699	102.418147157616	0
0	1701	102.687567073769	1
0	1703	102.786733740436	0
0	1705	103.009896380783	1
0	1707	103.046143634126	2
0	1710	103.126265856248	2
0	1713	103.225432522915	0
0	1715	103.633374776119	1
0	1717	103.732541442786	0
0	1719	104.0754812136	1
0	1721	104.145980702122	2
0	1724	104.244871697565	2
0	1727	104.344038364232	0
0	1729	104.484762780823	1
0	1731	104.492304413667	2
0	1733	104.543287874199	2
0	1737	104.642454540866	0
0	1739	105.408161837399	1
0	1741	105.425428244952	2
0	1743	105.437154438663	2
0	1745	105.472602883785	2
0	1750	105.571769550452	0
0	1752	105.871635060559	1
0	1754	105.87355248139	2
0	1756	105.949589245615	2
0	1760	106.010704403851	2
0	1763	106.109871070518	0
0	1765	106.519995411589	1
0	1767	106.619162078256	0
0	1769	106.686233662205	1
0	1771	106.751589489266	2
0	1774	106.850756155933	0
0	1776	106.886458211264	1
0	1778	106.940880000441	2
0	1781	107.040046667108	0
0	1783	107.044633703485	1
0	1785	107.143800370152	0
0	1787	107.181111573037	1
0	1789	107.280278239704	0
0	1791	107.430179071935	1
0	1793	107.470870652638	2
0	1795	107.513402757599	2
0	1799	107.612569424266	0
0	1801	107.912326453735	1
0	1803	107.962099373628	2
0	1806	108.019813929388	2
0	1809	108.118980596055	0
0	1811	108.574500268991	1
0	1813	108.673666935658	0
0	1815	108.73723217436	1
0	1817	108.772360099881	2
0	1820	108.871526766548	0
0	1822	108.878398407656	1
0	1824	108.943353144761	2
0	1827	109.042519811428	0
0	1829	109.293884956709	1
0	1831	109.393051623376	0
0	1833	109.430070716791	1
0	1835	109.529237383458	0
0	1837	109.683016580034	1
0	1839	109.736238448373	2
0	1842	109.83540511504	0
0	1844	109.950318926981	1
0	1846	109.95068902656	2
0	1848	110.001356871998	2
0	1852	110.100523538665	0
0	1854	110.340671641292	1
0	1856	110.439838307959	0
0	1858	110.670169746758	1
0	1860	110.769336413425	0
0	1862	111.023409682162	1
0	1864	111.082003347329	2
0	1867	111.181170013996	0
0	1869	111.213626042984	1
0	1871	111.312792709651	0
0	1873	111.553368086832	1
0	1875	111.652534753499	0
0	1877	111.714854211971	1
0	1879	111.809074246101	2
0	1882	111.908240912768	0
0	1884	112.058919680257	1
0	1886	112.158086346924	0
0	1888	112.335887748525	1
0	1890	112.351250889263	2
0	1893	112.45041755593	0
0	1895	112.678811534645	1
0	1897	112.777978201312	0
0	1899	112.951738616166	1
0	1901	112.991707829154	2
0	1904	113.090874495821	0
0	1906	113.274907719889	1
0	1908	113.374074386556	0
0	1910	113.878348719365	1
0	1912	113.927067331627	2
0	1914	113.93123282379	2
0	1918	114.030399490457	0
0	1920	114.476178311834	1
0	1922	114.575344978501	0
0	1924	114.787057935508	1
0	1926	114.886224602175	0
0	1928	115.073063666501	1
0	1930	115.172230333168	0
0	1932	115.371580920668	1
0	1934	115.41598003643	2
0	1936	115.452247379442	2
0	1940	115.520008119314	2
0	1943	115.568611765912	2
0	1945	115.579962980975	2
0	1949	115.679129647642	0
0	1951	115.702500454019	1
0	1953	115.801667120686	0
0	1955	116.112595091375	1
0	1957	116.15972915801	2
0	1960	116.258895824677	0
0	1962	116.42552700505	1
0	1964	116.465700422459	2
0	1967	116.536321889197	2
0	1970	116.635488555864	0
0	1972	116.859633753995	1
0	1974	116.888613689291	2
0	1976	116.930923667178	2
0	1980	117.030090333845	0
0	1982	117.075926527884	1
0	1984	117.175093194551	0
0	1986	117.216354306344	1
0	1988	117.315520973011	0
0	1990	118.887922675992	1
0	1992	118.987089342659	0
0	1994	119.185187377925	1
0	1996	119.284354044592	0
0	1998	119.323553012391	1
0	2000	119.422719679058	0
0	2002	119.467119954726	1
0	2004	119.518347875174	2
0	2007	119.617514541841	0
0	2009	119.631028965863	1
0	2011	119.73019563253	0
0	2013	120.006240330519	1
0	2015	120.105406997186	0
0	2017	120.290439178802	1
0	2019	120.365152746145	2
0	2022	120.464319412812	0
0	2024	121.239495419499	1
0	2026	121.338662086166	0
0	2028	121.355801444319	1
0	2030	121.3910425047	2
0	2033	121.490209171367	0
0	2035	121.696853296064	1
0	2037	121.796019962731	0
0	2039	121.818807950061	1
0	2041	121.917974616728	0
0	2043	122.07978841084	1
0	2045	122.170274916957	2
0	2048	122.269441583624	0
0	2050	122.376016952863	1
0	2052	122.47518361953	0
0	2054	122.535719838735	1
0	2056	122.578612537426	2
0	2059	122.677779204093	0
0	2061	122.983869541303	1
0	2063	123.08303620797	0
0	2065	123.627840217389	1
0	2067	123.727006884056	0
0	2069	123.737821408826	1
0	2071	123.836988075493	0
0	2073	124.039764370234	1
0	2075	124.138931036901	0
0	2077	124.262690102402	1
0	2079	124.361856769069	0
0	2081	124.428725840852	1
0	2083	124.527892507519	0
0	2085	124.56828838336	1
0	2087	124.667455050027	0
0	2089	124.893925074168	1
0	2091	124.937576789518	2
0	2093	124.963469469436	2
0	2097	125.062636136103	0
0	2099	125.150289266818	1
0	2101	125.210364765145	2
0	2104	125.26362153171	2
0	2107	125.320484472237	2
0	2110	125.419651138904	0
0	2112	125.500396681371	1
0	2114	125.599563348038	0
0	2116	125.604366264208	1
0	2118	125.703532930875	0
0	2120	125.765523221596	1
0	2122	125.864689888263	0
0	2124	126.614504982181	1
0	2126	126.713671648848	0
0	2128	127.114176117241	1
0	2130	127.213342783908	0
0	2132	127.778189181301	1
0	2134	127.877355847968	0
0	2136	127.8912139653	1
0	2138	127.975266162323	2
0	2141	127.991735651016	2
0	2144	128.090902317683	0
0	2146	128.249568867704	1
0	2148	128.348735534371	0
0	2150	128.480349794097	1
0	2152	128.562161623977	2
0	2155	128.615672056785	2
0	2158	128.714838723452	0
0	2160	128.847119271126	1
0	2162	128.946285937793	0
0	2164	129.214499079516	1
0	2166	129.262567350466	2
0	2169	129.340764669768	2
0	2172	129.439931336435	0
0	2174	129.673608220024	1
0	2176	129.772774886691	0
0	2178	130.404428705545	1
0	2180	130.503595372212	0
0	2182	130.523955344541	1
0	2184	130.623122011208	0
0	2186	130.927483743288	1
0	2188	131.026650409955	0
0	2190	131.617289116964	1
0	2192	131.716455783631	0
0	2194	131.976296829246	1
0	2196	132.050837087198	2
0	2199	132.150003753865	0
0	2201	132.244042142146	1
0	2203	132.343208808813	0
0	2205	132.365906765275	1
0	2207	132.446607588925	2
0	2210	132.545774255592	0
0	2212	132.58549250535	1
0	2214	132.684659172017	0
0	2216	132.790900188839	1
0	2218	132.890066855506	0
0	2220	133.016003784105	1
0	2222	133.114364095026	2
0	2225	133.169770393412	2
0	2228	133.268937060079	0
0	2230	133.29124125018	1
0	2232	133.390407916847	0
0	2234	133.519619614208	1
0	2236	133.53366328673	2
0	2239	133.632829953397	0
0	2241	133.96637566929	1
0	2243	134.065542335957	0
0	2245	134.080807762966	1
0	2247	134.179974429633	0
0	2249	134.180534258867	1
0	2251	134.184150824665	2
0	2254	134.283317491332	0
0	2256	134.885230091923	1
0	2258	134.98439675859	0
0	2260	135.114025713371	1
0	2262	135.165604433718	2
0	2265	135.26206784985	2
0	2268	135.361234516517	0
0	2270	135.756202900175	1
0	2272	135.813790591225	2
0	2274	135.835798968074	2
0	2278	135.934965634741	0
0	2280	135.956855015012	1
0	2282	136.000697100492	2
0	2284	136.048406471882	2
0	2288	136.147573138549	0
0	2290	136.297335726171	1
0	2292	136.396502392838	0
0	2294	136.672715893192	1
0	2296	136.771882559859	0
0	2298	136.816703435258	1
0	2300	136.915870101925	0
0	2302	137.35205013957	1
0	2304	137.429781156633	2
0	2307	137.5289478233	0
0	2309	137.637010056361	1
0	2311	137.736176723028	0
0	2313	137.753808025679	1
0	2315	137.772217650847	2
0	2318	137.860441302121	2