version 3
run RBAAloha-1-20260306-11:42:26-2896
attr configname RBAAloha
attr datetime 20260306-11:42:26
attr datetimef 20260306-114226
attr experiment RBAAloha
attr inifile omnetpp.ini
attr iterationvars ""
attr iterationvarsd ""
attr iterationvarsf ""
attr measurement ""
attr network Aloha
attr processid 2896
attr repetition 1
attr replication #1
attr resultdir results
attr runnumber 1
attr seedset 1
config description "pure Aloha, overloaded"
config repeat 3
config sim-time-limit 1000s
config Aloha.host[*].iaTime exponential(2s)
config network Aloha
config Aloha.numHosts 20
config Aloha.slotTime 0s
config Aloha.txRate 9.6kbps
config Aloha.host[*].pkLenBits 952b
config **.x "uniform(0m, 1000m)"
config **.y "uniform(0m, 1000m)"
config **.animationHoldTimeOnCollision 0s
config **.idleAnimationSpeed 1
config **.transmissionEdgeAnimationSpeed 1e-6
config **.midTransmissionAnimationSpeed 1e-1

vector 0 Aloha.server serverChannelState:vector ETV
attr enum IDLE=0,TRANSMISSION=1,COLLISION=2
attr recordingmode vector
attr source channelState
attr title "Channel state"
vector 1 Aloha.host[0] radioState:vector ETV
attr enum IDLE=0,TRANSMIT=1
attr recordingmode vector
attr source state
attr title "Radio state"
vector 2 Aloha.host[1] radioState:vector ETV
attr enum IDLE=0,TRANSMIT=1
attr recordingmode vector
attr source state
attr title "Radio state"
vector 3 Aloha.host[2] radioState:vector ETV
attr enum IDLE=0,TRANSMIT=1
attr recordingmode vector
attr source state
attr title "Radio state"
vector 4 Aloha.host[3] radioState:vector ETV
attr enum IDLE=0,TRANSMIT=1
attr recordingmode vector
attr source state
attr title "Radio state"
vector 5 Aloha.host[4] radioState:vector ETV
attr enum IDLE=0,TRANSMIT=1
attr recordingmode vector
attr source state
attr title "Radio state"
vector 6 Aloha.host[5] radioState:vector ETV
attr enum IDLE=0,TRANSMIT=1
attr recordingmode vector
attr source state
attr title "Radio state"
vector 7 Aloha.host[6] radioState:vector ETV
attr enum IDLE=0,TRANSMIT=1
attr recordingmode vector
attr source state
attr title "Radio state"
vector 8 Aloha.host[7] radioState:vector ETV
attr enum IDLE=0,TRANSMIT=1
attr recordingmode vector
attr source state
attr title "Radio state"
vector 9 Aloha.host[8] radioState:vector ETV
attr enum IDLE=0,TRANSMIT=1
attr recordingmode vector
attr source state
attr title "Radio state"
vector 10 Aloha.host[9] radioState:vector ETV
attr enum IDLE=0,TRANSMIT=1
attr recordingmode vector
attr source state
attr title "Radio state"
vector 11 Aloha.host[10] radioState:vector ETV
attr enum IDLE=0,TRANSMIT=1
attr recordingmode vector
attr source state
attr title "Radio state"
vector 12 Aloha.host[11] radioState:vector ETV
attr enum IDLE=0,TRANSMIT=1
attr recordingmode vector
attr source state
attr title "Radio state"
vector 13 Aloha.host[12] radioState:vector ETV
attr enum IDLE=0,TRANSMIT=1
attr recordingmode vector
attr source state
attr title "Radio state"
vector 14 Aloha.host[13] radioState:vector ETV
attr enum IDLE=0,TRANSMIT=1
attr recordingmode vector
attr source state
attr title "Radio state"
vector 15 Aloha.host[14] radioState:vector ETV
attr enum IDLE=0,TRANSMIT=1
attr recordingmode vector
attr source state
attr title "Radio state"
vector 16 Aloha.host[15] radioState:vector ETV
attr enum IDLE=0,TRANSMIT=1
attr recordingmode vector
attr source state
attr title "Radio state"
vector 17 Aloha.host[16] radioState:vector ETV
attr enum IDLE=0,TRANSMIT=1
attr recordingmode vector
attr source state
attr title "Radio state"
vector 18 Aloha.host[17] radioState:vector ETV
attr enum IDLE=0,TRANSMIT=1
attr recordingmode vector
attr source state
attr title "Radio state"
vector 19 Aloha.host[18] radioState:vector ETV
attr enum IDLE=0,TRANSMIT=1
attr recordingmode vector
attr source state
attr title "Radio state"
vector 20 Aloha.host[19] radioState:vector ETV
attr enum IDLE=0,TRANSMIT=1
attr recordingmode vector
attr source state
attr title "Radio state"
vector 21 Aloha.server channelUtilizationVector:vector ETV
attr interpolationmode linear
attr recordingmode vector
attr source timeavg(receive)
attr title "channel utilization evolution"
0	0	0	0
0	2	0.07967874521	1
0	4	0.122143037506	2
0	6	0.177760869867	2
0	9	0.194789172305	2
0	11	0.207051736732	2
0	16	0.306218403399	0
0	18	0.372251467731	1
0	20	0.471418134398	0
0	22	0.63779711488	1
0	24	0.736963781547	0
0	26	0.752077627442	1
0	28	0.851244294109	0
0	30	0.91159182383	1
0	32	1.010758490497	0
0	34	1.272122796051	1
0	36	1.355291131095	2
0	39	1.454457797762	0
0	41	1.460257583475	1
0	43	1.535181927055	2
0	46	1.634348593722	0
0	48	1.677871871432	1
0	50	1.768937439308	2
0	53	1.798207749709	2
0	55	1.829778448509	2
0	59	1.905019261974	2
0	62	1.9669120165	2
0	65	2.066078683167	0
0	67	2.220529004725	1
0	69	2.319695671392	0
0	71	2.35740928249	1
0	73	2.448684959706	2
0	76	2.547851626373	0
0	78	2.84092884701	1
0	80	2.940095513677	0
0	82	3.091476963385	1
0	84	3.190643630052	0
0	86	3.246645933537	1
0	88	3.256906981119	2
0	91	3.356073647786	0
0	93	3.533904718478	1
0	95	3.539254799718	2
0	97	3.5983373398	2
0	101	3.697504006467	0
0	103	3.774375534405	1
0	105	3.790810752502	2
0	107	3.850974211328	2
0	109	3.85845135885	2
0	114	3.957618025517	0
0	116	3.960677691827	1
0	118	4.005261170595	2
0	121	4.104427837262	0
0	123	4.152373855375	1
0	125	4.181234963846	2
0	127	4.209807917048	2
0	131	4.308974583715	0
0	133	4.372310435464	1
0	135	4.471477102131	0
0	137	4.481058051417	1
0	139	4.500112385206	2
0	141	4.506049586009	2
0	143	4.510591012242	2
0	145	4.558991442441	2
0	151	4.618040567518	2
0	153	4.652805328544	2
0	156	4.70268866989	2
0	160	4.75487958353	2
0	162	4.783151613095	2
0	166	4.882318279762	0
0	168	4.885532728436	1
0	170	4.984699395103	0
0	172	4.991996467211	1
0	174	5.085328399306	2
0	177	5.140427316852	2
0	180	5.214543471443	2
0	182	5.233436051719	2
0	186	5.332602718386	0
0	188	5.334464850867	1
0	190	5.433631517534	0
0	192	5.462267390687	1
0	194	5.556949140236	2
0	197	5.656115806903	0
0	199	5.797011008836	1
0	201	5.896177675503	0
0	203	6.038489350478	1
0	205	6.112093069537	2
0	208	6.154723233632	2
0	210	6.181484534061	2
0	214	6.280651200728	0
0	216	6.460256343461	1
0	218	6.559423010128	0
0	220	6.610057950804	1
0	222	6.611845381439	2
0	224	6.653715527523	2
0	228	6.75288219419	0
0	230	6.798347219846	1
0	232	6.855370803956	2
0	234	6.870882894122	2
0	237	6.900455208992	2
0	241	6.999621875659	0
0	243	7.062861600347	1
0	245	7.088011316409	2
0	247	7.112414199726	2
0	251	7.211580866393	0
0	253	7.280321802972	1
0	255	7.379488469639	0
0	257	7.463595257907	1
0	259	7.562761924574	0
0	261	7.623270814667	1
0	263	7.662429723039	2
0	266	7.761596389706	0
0	268	7.77870751991	1
0	270	7.877874186577	0
0	272	7.918146657511	1
0	274	7.967769391488	2
0	277	8.066936058155	0
0	279	8.266682239107	1
0	281	8.362717658696	2
0	284	8.461884325363	0
0	286	8.489832459335	1
0	288	8.588999126002	0
0	290	8.633933522988	1
0	292	8.65160867822	2
0	294	8.674898652217	2
0	297	8.733579958329	2
0	300	8.761847890161	2
0	304	8.861014556828	0
0	306	9.179688158695	1
0	308	9.222510213665	2
0	311	9.321676880332	0
0	313	9.484038225341	1
0	315	9.488899237577	2
0	317	9.554191571545	2
0	319	9.573800762494	2
0	321	9.579707042117	2
0	327	9.678873708784	0
0	329	9.699069653042	1
0	331	9.787987632793	2
0	333	9.797986255256	2
0	337	9.897152921923	0
0	339	10.157224786954	1
0	341	10.256391453621	0
0	343	10.355899603997	1
0	345	10.378966751439	2
0	347	10.442769244023	2
0	351	10.479723682902	2
0	354	10.578890349569	0
0	356	11.060700019874	1
0	358	11.159866686541	0
0	360	11.345994875317	1
0	362	11.391678852504	2
0	365	11.452613338538	2
0	368	11.551780005205	0
0	370	11.585338977247	1
0	372	11.684505643914	0
0	374	11.710192614213	1
0	376	11.80935928088	0
0	378	12.018045660723	1
0	380	12.027289310156	2
0	382	12.05490504348	2
0	385	12.120069467278	2
0	389	12.219236133945	0
0	391	12.242711761382	1
0	393	12.242881320798	2
0	396	12.342047987465	0
0	398	12.387475974704	1
0	400	12.40965571732	2
0	402	12.433545087698	2
0	404	12.452063547077	2
0	409	12.551230213744	0
0	411	12.552266866813	1
0	413	12.564958244044	2
0	415	12.600077785456	2
0	418	12.662135302823	2
0	422	12.76130196949	0
0	424	12.776473025331	1
0	426	12.796548381902	2
0	429	12.895715048569	0
0	431	13.042764897929	1
0	433	13.141931564596	0
0	435	13.165650627486	1
0	437	13.23476377518	2
0	440	13.32207837744	2
0	443	13.421245044107	0
0	445	13.639274492077	1
0	447	13.720792892781	2
0	450	13.819959559448	0
0	452	13.87499564873	1
0	454	13.894598963376	2
0	457	13.993765630043	0
0	459	14.190891082292	1
0	461	14.193554798517	2
0	463	14.220254448697	2
0	467	14.295806653055	2
0	470	14.326519512939	2
0	473	14.425686179606	0
0	475	14.430755508071	1
0	477	14.519845011071	2
0	480	14.570250980598	2
0	482	14.602986955214	2
0	484	14.604380136006	2
0	488	14.687515272825	2
0	492	14.711006444611	2
0	494	14.726916786743	2
0	498	14.82608345341	0
0	500	15.216651087985	1
0	502	15.315817754652	0
0	504	15.643700848185	1
0	506	15.670742293326	2
0	508	15.679289996148	2
0	512	15.778456662815	0
0	514	15.810352128052	1
0	516	15.909518794719	0
0	518	16.082349251564	1
0	520	16.116577164786	2
0	523	16.209047433997	2
0	526	16.239618581977	2
0	528	16.258428780258	2
0	530	16.29996089496	2
0	535	16.389472840343	2
0	538	16.48863950701	0
0	540	16.536205305109	1
0	542	16.5444442125	2
0	545	16.643610879167	0
0	547	16.773229339211	1
0	549	16.866946414855	2
0	552	16.938606679746	2
0	555	17.029850703709	2
0	558	17.129017370376	0
0	560	17.17270309753	1
0	562	17.256035011185	2
0	565	17.355201677852	0
0	567	17.464051067697	1
0	569	17.491759731022	2
0	572	17.590926397689	0
0	574	17.695799045775	1
0	576	17.794965712442	0
0	578	17.914490171525	1
0	580	17.941697943336	2
0	583	18.040864610003	0
0	585	18.086889833126	1
0	587	18.186056499793	0
0	589	18.208692801492	1
0	591	18.307859468159	0
0	593	18.408981847228	1
0	595	18.412370189026	2
0	598	18.508688021372	2
0	601	18.520274679442	2
0	603	18.584724984379	2
0	607	18.622572112009	2
0	609	18.656375026644	2
0	613	18.724052452174	2
0	616	18.808662929611	2
0	619	18.849766918664	2
0	621	18.873251795258	2
0	625	18.9652592808	2
0	628	18.997598068179	2
0	630	19.044251667147	2
0	632	19.050374842197	2
0	637	19.149541508864	0
0	639	19.214525340798	1
0	641	19.279897577291	2
0	644	19.379064243958	0
0	646	19.515862431036	1
0	648	19.537704229277	2
0	650	19.58792509157	2
0	652	19.609684421072	2
0	657	19.708851087739	0
0	659	19.73113858821	1
0	661	19.779670125349	2
0	663	19.824790469935	2
0	666	19.840994196538	2
0	670	19.940160863205	0
0	672	19.974025204133	1
0	674	19.974738633246	2
0	677	20.073905299913	0
0	679	20.116002172264	1
0	681	20.215168838931	0
0	683	20.339435454103	1
0	685	20.362466148704	2
0	687	20.374859136235	2
0	689	20.407704126241	2
0	694	20.506870792908	0
0	696	20.511672488544	1
0	698	20.53357865671	2
0	701	20.632745323377	0
0	703	20.697523213168	1
0	705	20.796689879835	0
0	707	20.817498018096	1
0	709	20.916664684763	0
0	711	20.9886612314	1
0	713	20.994440531994	2
0	716	21.093607198661	0
0	718	21.297486071556	1
0	720	21.317050003963	2
0	722	21.327159752449	2
0	724	21.378868572185	2
0	729	21.478035238852	0
0	731	21.484021261456	1
0	733	21.583187928123	0
0	735	21.702776854546	1
0	737	21.761442071928	2
0	740	21.860608738595	0
0	742	22.085251532834	1
0	744	22.184418199501	0
0	746	22.360199034486	1
0	748	22.378243376272	2
0	751	22.477410042939	0
0	753	22.529641068338	1
0	755	22.628807735005	0
0	757	22.75238343285	1
0	759	22.752784765776	2
0	762	22.851951432443	0
0	764	22.918521082012	1
0	766	22.992000121392	2
0	769	23.029389780168	2
0	772	23.110673806418	2
0	775	23.182316402968	2
0	777	23.184458681759	2
0	781	23.283625348426	0
0	783	23.302988318028	1
0	785	23.31459373817	2
0	787	23.327582480682	2
0	789	23.375944525381	2
0	794	23.437284834665	2
0	796	23.444050869256	2
0	799	23.485552614644	2
0	801	23.500075945343	2
0	805	23.568488484789	2
0	809	23.667655151456	0
0	811	23.748634280782	1
0	813	23.795241237338	2
0	815	23.836051738942	2
0	818	23.860110338619	2
0	820	23.862713860349	2
0	825	23.961880527016	0
0	827	24.265664125844	1
0	829	24.332881317332	2
0	832	24.364953827715	2
0	834	24.379048440517	2
0	836	24.416417725027	2
0	841	24.515584391694	0
0	843	24.518525923176	1
0	845	24.601465605295	2
0	848	24.700632271962	0
0	850	24.789529840216	1
0	852	24.794193291064	2
0	854	24.86814852527	2
0	858	24.967315191937	0
0	860	25.013623756193	1
0	862	25.052585909186	2
0	865	25.115786251911	2
0	868	25.214952918578	0
0	870	25.215415084562	1
0	872	25.314581751229	0
0	874	25.31809441557	1
0	876	25.409801067983	2
0	879	25.50896773465	0
0	881	25.614342946117	1
0	883	25.660956897482	2
0	886	25.760123564149	0
0	888	25.821033788022	1
0	890	25.863054860229	2
0	892	25.910229768333	2
0	896	26.009396435	0
0	898	26.126843785547	1
0	900	26.170721811017	2
0	903	26.269888477684	0
0	905	26.327622461903	1
0	907	26.42678912857	0
0	909	26.464290934594	1
0	911	26.47842015198	2
0	914	26.567092243362	2
0	917	26.630179227169	2
0	920	26.722775828154	2
0	923	26.747243636769	2
0	926	26.846410303436	0
0	928	26.870494936644	1
0	930	26.969661603311	0
0	932	27.060250770605	1
0	934	27.159417437272	0
0	936	27.202010748828	1
0	938	27.301177415495	0
0	940	27.695058535508	1
0	942	27.794225202175	0
0	944	27.916464195005	1
0	946	28.015630861672	0
0	948	28.061753198748	1
0	950	28.092216178825	2
0	953	28.191382845492	0
0	955	28.203601577989	1
0	957	28.302768244656	0
0	959	28.422959042622	1
0	961	28.516153239931	2
0	964	28.552980092044	2
0	966	28.557807538923	2
0	970	28.65697420559	0
0	972	28.669515353193	1
0	974	28.710892125478	2
0	977	28.810058792145	0
0	979	28.837850564101	1
0	981	28.842022549371	2
0	983	28.904150626636	2
0	987	29.003317293303	0
0	989	29.118701864883	1
0	991	29.21786853155	0
0	993	29.254482581329	1
0	995	29.353649247996	0
0	997	29.494181561181	1
0	999	29.533463282805	2
0	1001	29.571846966204	2
0	1005	29.637392311707	2
0	1008	29.730623024396	2
0	1011	29.829789691063	0
0	1013	29.833419214106	1
0	1015	29.845452905148	2
0	1018	29.944619571815	0
0	1020	30.036556527634	1
0	1022	30.073908711062	2
0	1024	30.086906220395	2
0	1028	30.184630704211	2
0	1031	30.214936393668	2
0	1033	30.243677780986	2
0	1035	30.258208348552	2
0	1038	30.284964842264	2
0	1041	30.336290586442	2
0	1046	30.416504824675	2
0	1048	30.42150416707	2
0	1051	30.479645844216	2
0	1055	30.540037784497	2
0	1057	30.557696048188	2
0	1060	30.595351876124	2
0	1064	30.687114144911	2
0	1067	30.744705852947	2
0	1070	30.843872519614	0
0	1072	30.945611287	1
0	1074	30.945906441777	2
0	1077	31.045073108444	0
0	1079	31.153870728628	1
0	1081	31.195656690664	2
0	1084	31.294823357331	0
0	1086	31.389511756808	1
0	1088	31.488678423475	0
0	1090	31.545666966391	1
0	1092	31.644833633058	0
0	1094	31.655918247896	1
0	1096	31.755084914563	0
0	1098	31.816767839635	1
0	1100	31.829729166799	2
0	1103	31.928895833466	0
0	1105	31.981764058358	1
0	1107	32.080930725025	0
0	1109	32.144355963524	1
0	1111	32.243522630191	0
0	1113	32.358005743457	1
0	1115	32.442550795163	2
0	1118	32.522525509928	2
0	1121	32.56981707871	2
0	1123	32.619122144737	2
0	1127	32.718288811404	0
0	1129	32.796442982869	1
0	1131	32.895609649536	0
0	1133	32.967830956577	1
0	1135	33.066997623244	0
0	1137	33.124207215531	1
0	1139	33.203075582363	2
0	1142	33.30224224903	0
0	1144	33.651127255379	1
0	1146	33.734771179262	2
0	1149	33.833937845929	0
0	1151	33.898815374641	1
0	1153	33.901486542614	2
0	1155	33.928108109216	2
0	1159	34.027274775883	0
0	1161	34.145227245634	1
0	1163	34.244393912301	0
0	1165	34.260463720948	1
0	1167	34.31594689443	2
0	1169	34.355251521923	2
0	1173	34.45441818859	0
0	1175	34.455735416355	1
0	1177	34.554902083022	0
0	1179	34.585703766988	1
0	1181	34.684870433655	0
0	1183	34.713466486112	1
0	1185	34.780649138309	2
0	1188	34.813893146818	2
0	1191	34.913059813485	0
0	1193	34.961853457819	1
0	1195	35.061020124486	0
0	1197	35.177960205407	1
0	1199	35.252631831804	2
0	1202	35.326297946959	2
0	1205	35.425464613626	0
0	1207	35.4430361373	1
0	1209	35.542202803967	0
0	1211	35.624787936781	1
0	1213	35.723954603448	0
0	1215	35.868343156339	1
0	1217	35.890922722285	2
0	1219	35.961700829787	2
0	1223	36.015898157708	2
0	1226	36.115064824375	0
0	1228	36.186003607153	1
0	1230	36.28517027382	0
0	1232	36.411653013591	1
0	1234	36.480092719581	2
0	1237	36.579259386248	0
0	1239	36.642879304375	1
0	1241	36.656027277982	2
0	1243	36.667383940573	2
0	1245	36.696830161821	2
0	1247	36.73406668426	2
0	1253	36.833233350927	0
0	1255	36.849363386537	1
0	1257	36.858821678282	2
0	1259	36.905594316504	2
0	1263	36.972152313694	2
0	1265	36.992049744601	2
0	1268	37.04542851549	2
0	1272	37.112040095902	2
0	1275	37.211206762569	0
0	1277	37.241472576197	1
0	1279	37.340639242864	0
0	1281	37.386519131058	1
0	1283	37.485685797725	0
0	1285	37.619196397595	1
0	1287	37.718363064262	0
0	1289	37.869243870683	1
0	1291	37.873331712749	2
0	1293	37.941100679012	2
0	1295	37.958082694219	2
0	1300	38.057249360886	0
0	1302	38.188677187242	1
0	1304	38.205069085825	2
0	1307	38.304235752492	0
0	1309	38.32108438968	1
0	1311	38.420251056347	0
0	1313	38.618273264501	1
0	1315	38.717439931168	0
0	1317	38.729516128305	1
0	1319	38.775535094766	2
0	1322	38.874701761433	0
0	1324	38.971801141229	1
0	1326	39.019815520915	2
0	1329	39.118982187582	0
0	1331	39.129572536504	1
0	1333	39.175873324901	2
0	1336	39.265687197094	2
0	1339	39.364853863761	0
0	1341	39.371134380553	1
0	1343	39.378554404507	2
0	1346	39.477721071174	0
0	1348	39.518648931959	1
0	1350	39.617815598626	0
0	1352	39.631995144848	1
0	1354	39.731161811515	0
0	1356	39.748815660432	1
0	1358	39.750424306303	2
0	1360	39.827836307094	2
0	1362	39.832995169196	2
0	1367	39.932161835863	0
0	1369	40.562244024033	1
0	1371	40.56408832241	2
0	1373	40.601479129355	2
0	1377	40.700645796022	0
0	1379	40.777181321024	1
0	1381	40.815583345612	2
0	1384	40.914750012279	0
0	1386	40.963090670306	1
0	1388	40.971199988816	2
0	1390	40.972107522884	2
0	1394	41.071274189551	0
0	1396	41.102584547841	1
0	1398	41.201751214508	0
0	1400	41.336212254355	1
0	1402	41.430435543532	2
0	1405	41.529602210199	0
0	1407	41.603952289761	1
0	1409	41.703118956428	0
0	1411	41.822987674296	1
0	1413	41.922154340963	0
0	1415	42.022409256141	1
0	1417	42.121575922808	0
0	1419	42.224031546484	1
0	1421	42.323198213151	0
0	1423	42.38249669357	1
0	1425	42.394929373189	2
0	1428	42.494055352272	2
0	1431	42.593222018939	0
0	1433	42.668783854674	1
0	1435	42.767950521341	0
0	1437	42.840298058174	1
0	1439	42.890395282274	2
0	1441	42.916638693849	2
0	1445	43.015805360516	0
0	1447	43.03055656096	1
0	1449	43.090090606423	2
0	1452	43.13712206664	2
0	1455	43.235630144801	2
0	1458	43.23905113215	2
0	1461	43.338217798817	0
0	1463	43.422512221759	1
0	1465	43.436885693153	2
0	1467	43.449893564689	2
0	1471	43.549060231356	0
0	1473	43.554279491528	1
0	1475	43.568052969141	2
0	1477	43.576042385077	2
0	1479	43.632512508851	2
0	1481	43.651107618839	2
0	1487	43.750274285506	0
0	1489	43.755424450171	1
0	1491	43.854591116838	0
0	1493	43.855395324673	1
0	1495	43.95456199134	0
0	1497	44.193754146187	1
0	1499	44.292920812854	0
0	1501	44.459090330818	1
0	1503	44.558256997485	0
0	1505	44.559636223437	1
0	1507	44.639182557782	2
0	1510	44.664288071652	2
0	1512	44.694912219605	2
0	1516	44.794078886272	0
0	1518	44.965750095845	1
0	1520	45.013834114009	2
0	1523	45.113000780676	0
0	1525	45.228457422816	1
0	1527	45.326293511076	2
0	1530	45.415445604808	2
0	1533	45.456371812962	2
0	1535	45.470586465649	2
0	1539	45.569753132316	0
0	1541	45.60387356652	1
0	1543	45.703040233187	0
0	1545	45.895621410727	1
0	1547	45.940276886433	2
0	1550	46.0394435531	0
0	1552	46.143831422134	1
0	1554	46.242998088801	0
0	1556	46.290927790231	1
0	1558	46.310486407967	2
0	1560	46.364599028352	2
0	1564	46.463765695019	0
0	1566	46.557511023623	1
0	1568	46.619091878597	2
0	1570	46.635988281447	2
0	1573	46.667346164065	2
0	1577	46.766512830732	0
0	1579	46.792561237264	1
0	1581	46.891727903931	0
0	1583	46.90794759609	1
0	1585	46.921218842345	2
0	1588	47.020385509012	0
0	1590	47.060995700301	1
0	1592	47.160162366968	0
0	1594	47.169510806914	1
0	1596	47.224587342204	2
0	1599	47.309793253717	2
0	1602	47.408959920384	0
0	1604	47.547885713143	1
0	1606	47.643332333505	2
0	1609	47.742499000172	0
0	1611	47.937356862737	1
0	1613	47.997170744222	2
0	1615	48.010806541585	2
0	1618	48.047903316802	2
0	1622	48.147069983469	0
0	1624	48.44661617961	1
0	1626	48.545782846277	0
0	1628	48.592665534932	1
0	1630	48.659419699078	2
0	1633	48.748482875978	2
0	1636	48.781505242885	2
0	1639	48.858004951451	2
0	1642	48.90693636864	2
0	1644	48.928523423522	2
0	1646	48.941353474274	2
0	1651	49.040520140941	0
0	1653	49.059203608146	1
0	1655	49.158370274813	0
0	1657	49.159643721947	1
0	1659	49.182415917071	2
0	1661	49.205087709658	2
0	1665	49.286763595242	2
0	1668	49.385930261909	0
0	1670	49.407959124901	1
0	1672	49.507125791568	0
0	1674	49.548820077689	1
0	1676	49.611295005193	2
0	1678	49.631071443668	2
0	1682	49.718421492057	2
0	1685	49.730561792789	2
0	1688	49.828645277012	2
0	1691	49.882100682504	2
0	1694	49.981267349171	0
0	1696	49.99276787276	1
0	1698	50.091934539427	0
0	1700	50.1472617518	1
0	1702	50.152795752604	2
0	1705	50.251962419271	0
0	1707	50.275742486528	1
0	1709	50.314168081416	2
0	1711	50.351974234888	2
0	1715	50.451140901555	0
0	1717	50.564959278724	1
0	1719	50.571434910781	2
0	1721	50.654706789255	2
0	1725	50.697325508683	2
0	1728	50.760682552356	2
0	1731	50.859849219023	0
0	1733	50.902467209314	1
0	1735	51.001633875981	0
0	1737	51.017649241542	1
0	1739	51.081133062141	2
0	1742	51.180299728808	0
0	1744	51.252286909819	1
0	1746	51.351453576486	0
0	1748	51.463798346619	1
0	1750	51.546753714988	2
0	1753	51.61263910136	2
0	1755	51.622883426204	2
0	1759	51.722050092871	0
0	1761	51.760868424996	1
0	1763	51.812614565488	2
0	1765	51.816607831116	2
0	1767	51.820407946192	2
0	1770	51.871273087044	2
0	1775	51.958590207496	2
0	1778	52.046190581738	2
0	1781	52.145357248405	0
0	1783	52.196525736451	1
0	1785	52.295692403118	0
0	1787	52.416037677462	1
0	1789	52.501977696874	2
0	1792	52.548591721168	2
0	1795	52.647758387835	0
0	1797	52.789052603559	1
0	1799	52.888219270226	0
0	1801	53.025130647543	1
0	1803	53.085064613325	2
0	1806	53.184231279992	0
0	1808	53.262513291171	1
0	1810	53.299327247156	2
0	1812	53.323859462657	2
0	1814	53.354400081959	2
0	1818	53.398989816043	2
0	1822	53.49815648271	0
0	1824	53.527630476097	1
0	1826	53.544436027196	2
0	1829	53.643602693863	0
0	1831	53.653075288843	1
0	1833	53.75224195551	0
0	1835	53.898996029585	1
0	1837	53.94266502004	2
0	1840	54.041831686707	0
0	1842	54.073683896512	1
0	1844	54.172850563179	0
0	1846	54.19370117523	1
0	1848	54.221765870995	2
0	1850	54.287188390578	2
0	1854	54.353886945775	2
0	1857	54.420903998952	2
0	1860	54.520070665619	0
0	1862	54.623944601809	1
0	1864	54.657128084614	2
0	1867	54.756294751281	0
0	1869	54.801334927945	1
0	1871	54.804074667375	2
0	1873	54.862827458789	2
0	1877	54.929952607187	2
0	1880	55.029119273854	0
0	1882	55.04737901812	1
0	1884	55.146545684787	0
0	1886	55.471881733433	1
0	1888	55.554742039541	2
0	1891	55.630421177917	2
0	1893	55.635889805579	2
0	1897	55.735056472246	0
0	1899	55.747267093653	1
0	1901	55.84643376032	0
0	1903	55.852512436901	1
0	1905	55.951679103568	0
0	1907	55.981128830206	1
0	1909	55.997559147743	2
0	1911	56.006522484525	2
0	1913	56.029560020679	2
0	1918	56.128726687346	0
0	1920	56.192537308473	1
0	1922	56.29170397514	0
0	1924	56.363798251131	1
0	1926	56.402626154463	2
0	1928	56.442520896123	2
0	1930	56.452440450552	2
0	1934	56.505005526612	2
0	1938	56.599237546957	2
0	1941	56.691162740972	2
0	1944	56.716309484601	2
0	1947	56.815476151268	0
0	1949	56.891735782818	1
0	1951	56.94203260489	2
0	1953	56.984726626344	2
0	1957	57.083893293011	0
0	1959	57.25720825	1
0	1961	57.339083364015	2
0	1964	57.362390255069	2
0	1966	57.400815958794	2
0	1969	57.45430144842	2
0	1972	57.470487964914	2
0	1976	57.561029614687	2
0	1979	57.660196281354	0
0	1981	57.758531342779	1
0	1983	57.804509192751	2
0	1985	57.81071597688	2
0	1989	57.909882643547	0
0	1991	57.926319297279	1
0	1993	58.025485963946	0
0	1995	58.072795511967	1
0	1997	58.101929337083	2
0	1999	58.156432296048	2
0	2003	58.223746530842	2
0	2006	58.322913197509	0
0	2008	58.429239580438	1
0	2010	58.513440617069	2
0	2013	58.586932955417	2
0	2016	58.686099622084	0
0	2018	58.691616720417	1
0	2020	58.769722856544	2
0	2022	58.784045286823	2
0	2026	58.88321195349	0
0	2028	59.130502843694	1
0	2030	59.212389670677	2
0	2032	59.221011839266	2
0	2035	59.277690480066	2
0	2039	59.360632613958	2
0	2042	59.41172992629	2
0	2044	59.417779332177	2
0	2046	59.440595147155	2
0	2049	59.468849022371	2
0	2054	59.541914346328	2
0	2057	59.609907458014	2
0	2060	59.68944421041	2
0	2063	59.754241175315	2
0	2066	59.853407841982	0
0	2068	59.96198311669	1
0	2070	60.061149783357	0
0	2072	60.256668947382	1
0	2074	60.311385713	2
0	2077	60.410552379667	0
0	2079	60.473103425742	1
0	2081	60.531688721256	2
0	2084	60.579020083819	2
0	2087	60.637604909384	2
0	2090	60.696221738426	2
0	2093	60.738799163266	2
0	2095	60.759487257502	2
0	2099	60.858653924169	0
0	2101	60.894228160848	1
0	2103	60.900550133732	2
0	2105	60.982185421828	2
0	2107	60.992316604048	2
0	2111	61.059405956545	2
0	2115	61.150341978937	2
0	2118	61.249508645604	0
0	2120	61.440360559628	1
0	2122	61.457439186456	2
0	2124	61.49895900636	2
0	2127	61.550709219841	2
0	2131	61.636475935251	2
0	2134	61.735642601918	0
0	2136	61.934172244098	1
0	2138	62.033338910765	0
0	2140	62.105027287028	1
0	2142	62.153927408926	2
0	2145	62.224475764565	2
0	2148	62.323642431232	0
0	2150	62.327650007913	1
0	2152	62.42681667458	0
0	2154	62.497182567748	1
0	2156	62.596349234415	0
0	2158	62.645005856762	1
0	2160	62.744172523429	0
0	2162	62.797654533364	1
0	2164	62.896821200031	0
0	2166	63.043605828013	1
0	2168	63.14277249468	0
0	2170	63.246970717943	1
0	2172	63.34613738461	0
0	2174	63.663717356216	1
0	2176	63.762884022883	0
0	2178	63.917791328864	1
0	2180	64.016957995531	0
0	2182	64.070599306769	1
0	2184	64.081406604805	2
0	2186	64.126299061871	2
0	2188	64.168236540988	2
0	2193	64.267403207655	0
0	2195	64.29718694666	1
0	2197	64.357034649401	2
0	2199	64.364279219364	2
0	2203	64.463445886031	0
0	2205	64.481749999118	1
0	2207	64.501800325091	2
0	2210	64.58365168026	2
0	2213	64.682818346927	0
0	2215	64.694133238566	1
0	2217	64.760699064223	2
0	2219	64.764070987135	2
0	2221	64.770000251368	2
0	2224	64.824318705073	2
0	2229	64.92348537174	0
0	2231	64.941362645089	1
0	2233	64.953338730374	2
0	2236	65.052505397041	0
0	2238	65.243502187469	1
0	2240	65.342668854136	0
0	2242	65.361153729984	1
0	2244	65.460320396651	0
0	2246	65.468126221714	1
0	2248	65.567292888381	0
0	2250	65.637544921061	1
0	2252	65.685601447673	2
0	2255	65.774284740644	2
0	2257	65.782676151978	2
0	2261	65.881842818645	0
0	2263	66.01851014765	1
0	2265	66.050707360498	2
0	2268	66.149874027165	0
0	2270	66.226459544674	1
0	2272	66.233869481457	2
0	2275	66.333036148124	0
0	2277	66.498927586874	1
0	2279	66.593218985862	2
0	2282	66.603820386458	2
0	2285	66.702987053125	0
0	2287	66.842373110708	1
0	2289	66.844630088826	2
0	2292	66.943796755493	0
0	2294	67.182309733377	1
0	2296	67.234837915297	2
0	2299	67.296560584466	2
0	2302	67.395727251133	0
0	2304	67.474682901367	1
0	2306	67.573849568034	0
0	2308	67.626986372997	1
0	2310	67.648496144707	2
0	2313	67.747662811374	0
0	2315	67.846707563585	1
0	2317	67.945874230252	0
0	2319	68.097310716515	1
0	2321	68.142203290993	2
0	2323	68.168062365122	2
0	2325	68.177722359356	2
0	2328	68.197880949505	2
0	2330	68.213202278175	2
0	2336	68.312368944842	0
0	2338	68.328971725275	1
0	2340	68.428138391942	0
0	2342	68.507011779188	1
0	2344	68.606178445855	0
0	2346	68.845304416278	1
0	2348	68.944471082945	0
0	2350	69.031071562093	1
0	2352	69.13023822876	0
0	2354	69.210174239822	1
0	2356	69.253010518167	2
0	2359	69.352177184834	0
0	2361	69.667962127489	1
0	2363	69.767128794156	0
0	2365	69.881112823266	1
0	2367	69.980279489933	0
0	2369	70.091832010211	1
0	2371	70.185207750971	2
0	2374	70.253312444156	2
0	2377	70.352479110823	0
0	2379	70.43833320381	1
0	2381	70.537499870477	0
0	2383	70.689376576657	1
0	2385	70.788543243324	0
0	2387	70.902634033957	1
0	2389	70.934464654155	2
0	2392	71.033631320822	0
0	2394	71.166596157323	1
0	2396	71.26576282399	0
0	2398	71.304187705939	1
0	2400	71.357448250755	2
0	2403	71.456614917422	0
0	2405	71.489707907839	1
0	2407	71.588874574506	0
0	2409	71.657794455277	1
0	2411	71.756961121944	0
0	2413	71.761921882029	1
0	2415	71.861088548696	0
0	2417	71.878110214352	1
0	2419	71.906108771129	2
0	2421	71.911264951077	2
0	2423	71.925359065775	2
0	2425	71.967407350469	2
0	2427	71.972682040392	2
0	2434	72.071848707059	0
0	2436	72.095005862249	1
0	2438	72.141754067857	2
0	2441	72.196966586936	2
0	2444	72.296133253603	0
0	2446	72.335756749748	1
0	2448	72.394166043477	2
0	2451	72.457905975681	2
0	2454	72.557072642348	0
0	2456	72.647373238933	1
0	2458	72.717334004336	2
0	2461	72.816500671003	0
0	2463	72.872489114808	1
0	2465	72.971655781475	0
0	2467	73.214903243543	1
0	2469	73.226476500602	2
0	2471	73.230546616962	2
0	2473	73.231242645928	2
0	2475	73.2628124117	2
0	2481	73.361979078367	0
0	2483	73.42714986503	1
0	2485	73.448171326334	2
0	2487	73.492501470089	2
0	2489	73.511225647425	2
0	2494	73.610392314092	0
0	2496	73.663146319309	1
0	2498	73.692708936216	2
0	2501	73.791875602883	0
0	2503	73.838141797913	1
0	2505	73.93730846458	0
0	2507	74.08933985843	1
0	2509	74.170232578128	2
0	2512	74.269399244795	0
0	2514	74.321331190957	1
0	2516	74.420497857624	0
0	2518	74.43301127072	1
0	2520	74.532177937387	0
0	2522	74.635057039225	1
0	2524	74.734223705892	0
0	2526	74.799937698043	1
0	2528	74.877957047007	2
0	2531	74.924633083711	2
0	2534	75.023799750378	0
0	2536	75.041756603107	1
0	2538	75.114080312384	2
0	2540	75.128458794327	2
0	2544	75.227625460994	0
0	2546	75.307917064162	1
0	2548	75.349075766777	2
0	2551	75.448242433444	0
0	2553	75.580064127314	1
0	2555	75.639890158253	2
0	2558	75.73905682492	0
0	2560	75.948842211387	1
0	2562	76.048008878054	0
0	2564	76.143956439335	1
0	2566	76.207778163522	2
0	2569	76.304654331917	2
0	2572	76.318793529211	2
0	2574	76.360472484466	2
0	2576	76.391905875201	2
0	2579	76.413093172225	2
0	2584	76.512259838892	0
0	2586	76.528832261571	1