version 3
run RBAAloha-2-20260306-11:43:27-2292
attr configname RBAAloha
attr datetime 20260306-11:43:27
attr datetimef 20260306-114327
attr experiment RBAAloha
attr inifile omnetpp.ini
attr iterationvars ""
attr iterationvarsd ""
attr iterationvarsf ""
attr measurement ""
attr network Aloha
attr processid 2292
attr repetition 2
attr replication #2
attr resultdir results
attr runnumber 2
attr seedset 2
config description "pure Aloha, overloaded"
config repeat 3
config sim-time-limit 1000s
config Aloha.host[*].iaTime exponential(2s)
config network Aloha
config Aloha.numHosts 20
config Aloha.slotTime 0s
config Aloha.txRate 9.6kbps
config Aloha.host[*].pkLenBits 952b
config **.x "uniform(0m, 1000m)"
config **.y "uniform(0m, 1000m)"
config **.animationHoldTimeOnCollision 0s
config **.idleAnimationSpeed 1
config **.transmissionEdgeAnimationSpeed 1e-6
config **.midTransmissionAnimationSpeed 1e-1

vector 0 Aloha.server serverChannelState:vector ETV
attr enum IDLE=0,TRANSMISSION=1,COLLISION=2
attr recordingmode vector
attr source channelState
attr title "Channel state"
vector 1 Aloha.host[0] radioState:vector ETV
attr enum IDLE=0,TRANSMIT=1
attr recordingmode vector
attr source state
attr title "Radio state"
vector 2 Aloha.host[1] radioState:vector ETV
attr enum IDLE=0,TRANSMIT=1
attr recordingmode vector
attr source state
attr title "Radio state"
vector 3 Aloha.host[2] radioState:vector ETV
attr enum IDLE=0,TRANSMIT=1
attr recordingmode vector
attr source state
attr title "Radio state"
vector 4 Aloha.host[3] radioState:vector ETV
attr enum IDLE=0,TRANSMIT=1
attr recordingmode vector
attr source state
attr title "Radio state"
vector 5 Aloha.host[4] radioState:vector ETV
attr enum IDLE=0,TRANSMIT=1
attr recordingmode vector
attr source state
attr title "Radio state"
vector 6 Aloha.host[5] radioState:vector ETV
attr enum IDLE=0,TRANSMIT=1
attr recordingmode vector
attr source state
attr title "Radio state"
vector 7 Aloha.host[6] radioState:vector ETV
attr enum IDLE=0,TRANSMIT=1
attr recordingmode vector
attr source state
attr title "Radio state"
vector 8 Aloha.host[7] radioState:vector ETV
attr enum IDLE=0,TRANSMIT=1
attr recordingmode vector
attr source state
attr title "Radio state"
vector 9 Aloha.host[8] radioState:vector ETV
attr enum IDLE=0,TRANSMIT=1
attr recordingmode vector
attr source state
attr title "Radio state"
vector 10 Aloha.host[9] radioState:vector ETV
attr enum IDLE=0,TRANSMIT=1
attr recordingmode vector
attr source state
attr title "Radio state"
vector 11 Aloha.host[10] radioState:vector ETV
attr enum IDLE=0,TRANSMIT=1
attr recordingmode vector
attr source state
attr title "Radio state"
vector 12 Aloha.host[11] radioState:vector ETV
attr enum IDLE=0,TRANSMIT=1
attr recordingmode vector
attr source state
attr title "Radio state"
vector 13 Aloha.host[12] radioState:vector ETV
attr enum IDLE=0,TRANSMIT=1
attr recordingmode vector
attr source state
attr title "Radio state"
vector 14 Aloha.host[13] radioState:vector ETV
attr enum IDLE=0,TRANSMIT=1
attr recordingmode vector
attr source state
attr title "Radio state"
vector 15 Aloha.host[14] radioState:vector ETV
attr enum IDLE=0,TRANSMIT=1
attr recordingmode vector
attr source state
attr title "Radio state"
vector 16 Aloha.host[15] radioState:vector ETV
attr enum IDLE=0,TRANSMIT=1
attr recordingmode vector
attr source state
attr title "Radio state"
vector 17 Aloha.host[16] radioState:vector ETV
attr enum IDLE=0,TRANSMIT=1
attr recordingmode vector
attr source state
attr title "Radio state"
vector 18 Aloha.host[17] radioState:vector ETV
attr enum IDLE=0,TRANSMIT=1
attr recordingmode vector
attr source state
attr title "Radio state"
vector 19 Aloha.host[18] radioState:vector ETV
attr enum IDLE=0,TRANSMIT=1
attr recordingmode vector
attr source state
attr title "Radio state"
vector 20 Aloha.host[19] radioState:vector ETV
attr enum IDLE=0,TRANSMIT=1
attr recordingmode vector
attr source state
attr title "Radio state"
vector 21 Aloha.server channelUtilizationVector:vector ETV
attr interpolationmode linear
attr recordingmode vector
attr source timeavg(receive)
attr title "channel utilization evolution"
0	0	0	0
0	2	0.135033276204	1
0	4	0.20302715436	2
0	6	0.226217117718	2
0	9	0.247034317015	2
0	11	0.272006616052	2
0	16	0.367422366264	2
0	19	0.401120485134	2
0	22	0.497709207739	2
0	25	0.501635270251	2
0	27	0.51239951667	2
0	31	0.611566183337	0
0	33	0.678988857671	1
0	35	0.684849868006	2
0	38	0.784016534673	0
0	40	0.861032163383	1
0	42	0.916060025009	2
0	45	1.015226691676	0
0	47	1.117661351847	1
0	49	1.216828018514	0
0	51	1.261427684908	1
0	53	1.269722866446	2
0	56	1.363583974711	2
0	59	1.462750641378	0
0	61	1.566951269497	1
0	63	1.571015159355	2
0	65	1.579232410637	2
0	68	1.668341634216	2
0	72	1.682258070997	2
0	74	1.690868252033	2
0	76	1.722225169516	2
0	81	1.816375449561	2
0	84	1.907638845476	2
0	87	2.006805512143	0
0	89	2.25744303608	1
0	91	2.356609702747	0
0	93	2.370947147926	1
0	95	2.470113814593	0
0	97	2.470373208534	1
0	99	2.510380817041	2
0	102	2.609547483708	0
0	104	2.657318579374	1
0	106	2.673083744389	2
0	108	2.695219884021	2
0	112	2.772587344305	2
0	115	2.871754010972	0
0	117	2.917656179208	1
0	119	2.955398953624	2
0	122	3.054565620291	0
0	124	3.064726894605	1
0	126	3.094947352722	2
0	129	3.194114019389	0
0	131	3.585759481954	1
0	133	3.617529274552	2
0	135	3.629392012856	2
0	137	3.657710713376	2
0	139	3.681506441146	2
0	145	3.757601161826	2
0	148	3.781857064864	2
0	151	3.881023731531	0
0	153	3.888018527761	1
0	155	3.934396961265	2
0	158	4.033563627932	0
0	160	4.056018080678	1
0	162	4.155184747345	0
0	164	4.210343147515	1
0	166	4.309509814182	0
0	168	4.405790056352	1
0	170	4.504956723019	0
0	172	4.533047356002	1
0	174	4.632214022669	0
0	176	4.66937043376	1
0	178	4.765552129392	2
0	181	4.864718796059	0
0	183	4.907546751831	1
0	185	5.006713418498	0
0	187	5.029863416202	1
0	189	5.072807629655	2
0	192	5.171974296322	0
0	194	5.287638006174	1
0	196	5.328810288042	2
0	199	5.427976954709	0
0	201	5.761854834542	1
0	203	5.769467857864	2
0	206	5.868634524531	0
0	208	5.882339865301	1
0	210	5.981506531968	0
0	212	6.187267347428	1
0	214	6.286434014095	0
0	216	6.364853757758	1
0	218	6.464020424425	0
0	220	6.785184474772	1
0	222	6.884351141439	0
0	224	7.05043226699	1
0	226	7.055329783862	2
0	229	7.154496450529	0
0	231	7.242581066713	1
0	233	7.255144772273	2
0	236	7.35431143894	0
0	238	7.662380096415	1
0	240	7.710322280338	2
0	243	7.775807052659	2
0	246	7.848011398772	2
0	249	7.947178065439	0
0	251	8.040688364476	1
0	253	8.139855031143	0
0	255	8.282627233061	1
0	257	8.345443052381	2
0	260	8.433548046782	2
0	263	8.452077991677	2
0	266	8.541343220553	2
0	269	8.64050988722	0
0	271	8.649437955227	1
0	273	8.69154175187	2
0	276	8.790708418537	0
0	278	8.839267309234	1
0	280	8.938433975901	0
0	282	9.182431980781	1
0	284	9.201616949741	2
0	286	9.248663023917	2
0	290	9.347829690584	0
0	292	9.572476234019	1
0	294	9.645062649345	2
0	297	9.697196559619	2
0	300	9.796363226286	0
0	302	9.883119091155	1
0	304	9.982285757822	0
0	306	10.008506394845	1
0	308	10.042870362202	2
0	311	10.118792758277	2
0	314	10.172455869608	2
0	317	10.271622536275	0
0	319	10.297828148411	1
0	321	10.326251139823	2
0	324	10.42541780649	0
0	326	10.551665356713	1
0	328	10.65083202338	0
0	330	10.673173337949	1
0	332	10.745354771672	2
0	335	10.796029150135	2
0	338	10.895195816802	0
0	340	10.928770863326	1
0	342	11.005737774194	2
0	345	11.095563691383	2
0	348	11.129716440086	2
0	350	11.156670520249	2
0	354	11.255837186916	0
0	356	11.276342923929	1
0	358	11.375509590596	0
0	360	11.400087677606	1
0	362	11.499254344273	0
0	364	11.743441345856	1
0	366	11.791293536314	2
0	369	11.890460202981	0
0	371	12.097725073347	1
0	373	12.196891740014	0
0	375	12.22415682118	1
0	377	12.323323487847	0
0	379	12.355998762729	1
0	381	12.455165429396	0
0	383	12.643023178022	1
0	385	12.651565684556	2
0	387	12.655000530393	2
0	391	12.75416719706	0
0	393	12.825534672159	1
0	395	12.924701338826	0
0	397	13.065082392431	1
0	399	13.164249059098	0
0	401	13.217231672016	1
0	403	13.268856692032	2
0	405	13.312013115158	2
0	408	13.319415838489	2
0	411	13.399497627814	2
0	415	13.498664294481	0
0	417	13.534923234705	1
0	419	13.555714408643	2
0	421	13.584057017198	2
0	423	13.603098920597	2
0	425	13.61850998201	2
0	431	13.717676648677	0
0	433	13.803384246117	1
0	435	13.902550912784	0
0	437	14.001081095638	1
0	439	14.100247762305	0
0	441	14.162774510928	1
0	443	14.261941177595	0
0	445	14.329563522023	1
0	447	14.352098716593	2
0	449	14.385766219728	2
0	451	14.416883453941	2
0	456	14.516050120608	0
0	458	14.621383027737	1
0	460	14.720549694404	0
0	462	14.74723183641	1
0	464	14.846398503077	0
0	466	15.018575444407	1
0	468	15.117742111074	0
0	470	15.189973728637	1
0	472	15.220207705904	2
0	474	15.2403348323	2
0	478	15.339501498967	0
0	480	15.340231699147	1
0	482	15.439398365814	0
0	484	15.716744946715	1
0	486	15.815911613382	0
0	488	15.824957877549	1
0	490	15.845305145107	2
0	493	15.944471811774	0
0	495	16.103546610681	1
0	497	16.202713277348	0
0	499	16.280343729817	1
0	501	16.336756519063	2
0	504	16.43592318573	0
0	506	16.51602664141	1
0	508	16.549011722429	2
0	511	16.636933440869	2
0	514	16.682402154715	2
0	517	16.781568821382	0
0	519	16.808366671489	1
0	521	16.873558643097	2
0	524	16.971375169194	2
0	527	17.070541835861	0
0	529	17.150511951608	1
0	531	17.21987343467	2
0	534	17.296096891053	2
0	537	17.39526355772	0
0	539	17.406605716588	1
0	541	17.458924003754	2
0	544	17.558090670421	0
0	546	17.701224115573	1
0	548	17.80039078224	0
0	550	17.805718644927	1
0	552	17.904885311594	0
0	554	18.263411003973	1
0	556	18.303755321024	2
0	558	18.349730788709	2
0	560	18.355795931962	2
0	564	18.41283936267	2
0	568	18.512006029337	0
0	570	18.656001791271	1
0	572	18.755168457938	0
0	574	19.112430926424	1
0	576	19.142345964336	2
0	578	19.175383952267	2
0	582	19.274550618934	0
0	584	19.323180026529	1
0	586	19.422346693196	0
0	588	19.537439807594	1
0	590	19.557395949635	2
0	593	19.656562616302	0
0	595	19.81997545938	1
0	597	19.919142126047	0
0	599	19.983256391325	1
0	601	20.008315304466	2
0	603	20.016059512227	2
0	605	20.065896433857	2
0	610	20.141933587081	2
0	613	20.241100253748	0
0	615	20.308040916406	1
0	617	20.407207583073	0
0	619	20.541997984408	1
0	621	20.596423959738	2
0	624	20.695590626405	0
0	626	21.016307167273	1
0	628	21.086841687224	2
0	631	21.186008353891	0
0	633	21.508876501454	1
0	635	21.590616591986	2
0	638	21.652924184218	2
0	640	21.653683421809	2
0	643	21.750233339667	2
0	647	21.765381296643	2
0	650	21.86454796331	0
0	652	21.896821077044	1
0	654	21.987228590646	2
0	656	21.994945762353	2
0	659	22.062030695251	2
0	661	22.083831661284	2
0	665	22.094359612649	2
0	667	22.10291457284	2
0	669	22.107001126682	2
0	675	22.206167793349	0
0	677	22.221656848842	1
0	679	22.320823515509	0
0	681	22.37799525766	1
0	683	22.415253073352	2
0	685	22.474450712975	2
0	688	22.505121740723	2
0	692	22.5871072	2
0	695	22.620921162068	2
0	697	22.677439270059	2
0	701	22.774824213184	2
0	704	22.873990879851	0
0	706	22.893130102116	1
0	708	22.992296768783	0
0	710	22.998372899218	1
0	712	23.097539565885	0
0	714	23.100342936456	1
0	716	23.151016473359	2
0	718	23.170224338171	2
0	721	23.241085613947	2
0	724	23.267428944713	2
0	728	23.36659561138	0
0	730	23.449240884463	1
0	732	23.513954817593	2
0	735	23.61312148426	0
0	737	23.69701754463	1
0	739	23.713326515598	2
0	741	23.720650038128	2
0	743	23.750391816728	2
0	745	23.767455621923	2
0	751	23.862207294726	2
0	754	23.961373961393	0
0	756	23.984627795773	1
0	758	24.08379446244	0
0	760	24.146243962171	1
0	762	24.190494261017	2
0	764	24.219369887076	2
0	766	24.229372188183	2
0	769	24.267380622934	2
0	772	24.31357561327	2
0	776	24.340732240622	2
0	780	24.439898907289	0
0	782	24.518464357231	1
0	784	24.578897426889	2
0	787	24.636037906212	2
0	790	24.735204572879	0
0	792	24.794289884064	1
0	794	24.80880988324	2
0	797	24.907976549907	0
0	799	24.956948912697	1
0	801	25.056115579364	0
0	803	25.204243108378	1
0	805	25.303409775045	0
0	807	25.409703554913	1
0	809	25.50887022158	0
0	811	25.577738992619	1
0	813	25.674394701932	2
0	815	25.676588244158	2
0	818	25.713783647604	2
0	822	25.808237803425	2
0	825	25.875084516964	2
0	828	25.911342929468	2
0	830	25.95683276662	2
0	834	26.055334785338	2
0	837	26.154501452005	0
0	839	26.556878119335	1
0	841	26.57009646676	2
0	844	26.669263133427	0
0	846	26.754786004776	1
0	848	26.763316277163	2
0	851	26.857892040889	2
0	854	26.876957638681	2
0	856	26.882165236652	2
0	860	26.981331903319	0
0	862	26.989790290274	1
0	864	26.99951147829	2
0	866	27.001023424589	2
0	868	27.046010169969	2
0	870	27.051918486037	2
0	872	27.074240697354	2
0	877	27.113553972886	2
0	879	27.127292275984	2
0	885	27.212762994227	2
0	888	27.311929660894	0
0	890	27.317101491083	1
0	892	27.32614706221	2
0	895	27.425313728877	0
0	897	27.586537796347	1
0	899	27.685704463014	0
0	901	27.838132498094	1
0	903	27.843112143658	2
0	905	27.863207018426	2
0	907	27.885825998121	2
0	909	27.911761435071	2
0	913	27.947906237242	2
0	917	27.986883986577	2
0	921	28.086050653244	0
0	923	28.258939164539	1
0	925	28.295961266616	2
0	927	28.328098056907	2
0	930	28.359097204193	2
0	932	28.371887543097	2
0	937	28.471054209764	0
0	939	28.562738506113	1
0	941	28.66190517278	0
0	943	28.822095635958	1
0	945	28.921262302625	0
0	947	28.98622484977	1
0	949	29.085391516437	0
0	951	29.154631682507	1
0	953	29.235540682673	2
0	956	29.306493007898	2
0	959	29.349550054736	2
0	962	29.448716721403	0
0	964	29.492370891612	1
0	966	29.535313157748	2
0	969	29.634479824415	0
0	971	29.64709493995	1
0	973	29.706758305003	2
0	976	29.785649439508	2
0	979	29.852625581262	2
0	982	29.950793752246	2
0	985	29.971836164816	2
0	987	30.045061884891	2
0	991	30.089263535624	2
0	993	30.092928521728	2
0	995	30.116894704057	2
0	1000	30.210149554621	2
0	1003	30.309316221288	0
0	1005	30.338261083313	1
0	1007	30.43742774998	0
0	1009	30.745769062558	1
0	1011	30.844935729225	0
0	1013	30.942761886296	1
0	1015	30.985013020179	2
0	1017	30.994652507341	2
0	1019	31.004751269191	2
0	1024	31.103917935858	0
0	1026	31.352657069364	1
0	1028	31.375240111061	2
0	1030	31.38598324227	2
0	1034	31.485149908937	0
0	1036	31.589535540517	1
0	1038	31.651491863578	2
0	1041	31.750658530245	0
0	1043	31.818595237612	1
0	1045	31.891710701935	2
0	1048	31.990877368602	0
0	1050	32.107421418691	1
0	1052	32.206588085358	0
0	1054	32.299100849901	1
0	1056	32.346621634435	2
0	1058	32.397648798747	2
0	1062	32.496815465414	0
0	1064	32.52427068037	1
0	1066	32.623437347037	0
0	1068	32.640405856295	1
0	1070	32.686431617342	2
0	1073	32.759143949309	2
0	1076	32.836647119194	2
0	1079	32.935813785861	0
0	1081	33.056407150451	1
0	1083	33.099901434857	2
0	1085	33.146319581033	2
0	1089	33.2454862477	0
0	1091	33.320967465085	1
0	1093	33.354890554483	2
0	1095	33.382616855162	2
0	1097	33.414545784829	2
0	1102	33.513712451496	0
0	1104	33.578355729528	1
0	1106	33.677522396195	0
0	1108	33.787583775333	1
0	1110	33.863540766152	2
0	1113	33.962707432819	0
0	1115	33.989899128713	1
0	1117	34.02702729498	2
0	1120	34.119931685298	2
0	1122	34.125916479258	2
0	1125	34.12849064222	2
0	1127	34.147864278024	2
0	1132	34.247030944691	0
0	1134	34.707317956233	1
0	1136	34.8064846229	0
0	1138	34.94584580867	1
0	1140	34.961570096439	2
0	1143	35.060736763106	0
0	1145	35.066434575787	1
0	1147	35.165601242454	0
0	1149	35.376004177006	1
0	1151	35.475170843673	0
0	1153	35.589362303641	1
0	1155	35.688528970308	0
0	1157	35.694538592177	1
0	1159	35.79191163782	2
0	1162	35.891078304487	0
0	1164	35.914299081431	1
0	1166	35.971087150606	2
0	1169	36.067763175925	2
0	1172	36.079602675003	2
0	1175	36.17876934167	0
0	1177	36.234504690864	1
0	1179	36.333671357531	0
0	1181	36.37248590937	1
0	1183	36.38497967264	2
0	1185	36.436612802165	2
0	1189	36.535779468832	0
0	1191	36.556767352764	1
0	1193	36.590721219587	2
0	1196	36.689887886254	0
0	1198	37.099320055915	1
0	1200	37.144348396561	2
0	1202	37.164723322943	2
0	1204	37.18326738555	2
0	1208	37.260776355877	2
0	1211	37.277093629808	2
0	1215	37.376260296475	0
0	1217	37.468110271473	1
0	1219	37.56727693814	0
0	1221	37.614075933656	1
0	1223	37.6150673042	2
0	1226	37.714233970867	0
0	1228	37.78443570969	1
0	1230	37.883602376357	0
0	1232	38.033653209048	1
0	1234	38.129018810291	2
0	1237	38.165335077581	2
0	1240	38.264501744248	0
0	1242	38.406632895509	1
0	1244	38.409977853422	2
0	1247	38.509144520089	0
0	1249	38.577708404096	1
0	1251	38.676875070763	0
0	1253	38.714424228114	1
0	1255	38.813590894781	0
0	1257	38.953718377516	1
0	1259	38.971200459113	2
0	1261	38.973456664723	2
0	1263	39.044467377651	2
0	1268	39.079408929626	2
0	1271	39.178575596293	0
0	1273	39.217995356757	1
0	1275	39.218509882465	2
0	1278	39.317676549132	0
0	1280	39.32672312188	1
0	1282	39.330916562973	2
0	1285	39.429235431935	2
0	1288	39.465081500491	2
0	1291	39.564248167158	0
0	1293	39.580215257413	1
0	1295	39.584724458054	2
0	1298	39.683891124721	0
0	1300	39.719276691818	1
0	1302	39.803032468596	2
0	1305	39.902199135263	0
0	1307	39.931119648317	1
0	1309	40.025072166938	2
0	1312	40.124238833605	0
0	1314	40.212412296441	1
0	1316	40.25082310752	2
0	1319	40.316996304169	2
0	1322	40.416162970836	0
0	1324	40.576746923528	1
0	1326	40.675913590195	0
0	1328	40.719809884249	1
0	1330	40.818976550916	0
0	1332	40.862522209935	1
0	1334	40.870997618254	2
0	1336	40.938055750412	2
0	1338	40.941487525596	2
0	1343	41.040654192263	0
0	1345	41.099089853761	1
0	1347	41.198256520428	0
0	1349	41.460872408491	1
0	1351	41.560039075158	0
0	1353	41.818068811696	1
0	1355	41.917235478363	0
0	1357	41.964968711082	1
0	1359	42.064135377749	0
0	1361	42.196497123356	1
0	1363	42.295663790023	0
0	1365	42.30760263911	1
0	1367	42.406769305777	0
0	1369	42.486024792063	1
0	1371	42.489288042201	2
0	1373	42.494178153748	2
0	1375	42.508807781732	2
0	1379	42.58853757514	2
0	1383	42.687704241807	0
0	1385	42.717433084215	1
0	1387	42.816599750882	0
0	1389	42.855565318268	1
0	1391	42.954731984935	0
0	1393	43.011538149562	1
0	1395	43.017328091821	2
0	1397	43.040627906747	2
0	1400	43.112467863708	2
0	1404	43.14278256016	2
0	1406	43.155511387856	2
0	1410	43.254678054523	0
0	1412	43.268600075134	1
0	1414	43.367766741801	0
0	1416	43.370850588836	1
0	1418	43.388377771366	2
0	1420	43.461720327983	2
0	1424	43.494098326554	2
0	1427	43.571834170114	2
0	1430	43.594216108794	2
0	1433	43.693382775461	0
0	1435	43.741957283139	1
0	1437	43.79144501101	2
0	1440	43.890611677677	0
0	1442	44.025239294815	1
0	1444	44.063784581157	2
0	1447	44.162951247824	0
0	1449	44.233133628693	1
0	1451	44.29407634793	2
0	1454	44.393243014597	0
0	1456	44.413832407886	1
0	1458	44.433300994401	2
0	1460	44.438685916	2
0	1463	44.519516945063	2
0	1467	44.61868361173	0
0	1469	44.656543420468	1
0	1471	44.702260165563	2
0	1474	44.80142683223	0
0	1476	44.933106660124	1
0	1478	45.032273326791	0
0	1480	45.223253772106	1
0	1482	45.233795727747	2
0	1484	45.268608231044	2
0	1486	45.288144145547	2
0	1488	45.306320838729	2
0	1490	45.321108678097	2
0	1496	45.402514215658	2
0	1500	45.501680882325	0
0	1502	45.643067994246	1
0	1504	45.742234660913	0
0	1506	45.791794777322	1
0	1508	45.890961443989	0
0	1510	46.090461210322	1
0	1512	46.189627876989	0
0	1514	46.45847748729	1
0	1516	46.557644153957	0
0	1518	46.578334359841	1
0	1520	46.638362754232	2
0	1522	46.668198867708	2
0	1526	46.767365534375	0
0	1528	46.870904234587	1
0	1530	46.884522317479	2
0	1532	46.896234820127	2
0	1534	46.931620215366	2
0	1537	46.981057713466	2
0	1542	47.080224380133	0
0	1544	47.195894642807	1
0	1546	47.295061309474	0
0	1548	47.333711596063	1
0	1550	47.370189151333	2
0	1553	47.469355818	0
0	1555	47.470776593449	1
0	1557	47.549433652937	2
0	1560	47.635258874371	2
0	1563	47.714951549682	2
0	1566	47.738598042634	2
0	1569	47.837764709301	0
0	1571	47.895781072968	1
0	1573	47.994947739635	0
0	1575	47.996987795454	1
0	1577	48.096154462121	0
0	1579	48.097036293282	1
0	1581	48.118245276832	2
0	1583	48.155892061692	2
0	1586	48.206750799687	2
0	1588	48.214723509336	2
0	1593	48.313890176003	0
0	1595	48.410805114051	1
0	1597	48.477517454756	2
0	1600	48.576684121423	0
0	1602	48.592150721943	1
0	1604	48.638797899336	2
0	1606	48.641255344048	2
0	1608	48.674660407637	2
0	1613	48.773827074304	0
0	1615	48.815722777332	1
0	1617	48.914889443999	0
0	1619	48.959947811773	1
0	1621	49.016292467028	2
0	1624	49.071767570275	2
0	1627	49.120308509241	2
0	1629	49.125746362646	2
0	1633	49.224913029313	0
0	1635	49.354698986102	1
0	1637	49.453865652769	0
0	1639	49.552324570742	1
0	1641	49.576148437796	2
0	1643	49.623748186381	2
0	1647	49.701993585231	2
0	1650	49.801160251898	0
0	1652	50.051200521916	1
0	1654	50.150367188583	0
0	1656	50.16687916573	1
0	1658	50.265659720303	2
0	1661	50.358279967427	2
0	1663	50.364027844374	2
0	1666	50.376691513788	2
0	1670	50.475858180455	0
0	1672	50.478268888461	1
0	1674	50.510613464136	2
0	1677	50.609780130803	0
0	1679	50.797206757002	1
0	1681	50.812678413264	2
0	1683	50.862110687826	2
0	1685	50.890151828226	2
0	1690	50.989318494893	0
0	1692	51.167663399879	1
0	1694	51.245581136999	2
0	1697	51.344747803666	0
0	1699	51.367214493149	1
0	1701	51.466381159816	0
0	1703	51.654426883869	1
0	1705	51.753593550536	0
0	1707	51.822899925789	1
0	1709	51.882161043186	2
0	1712	51.981327709853	0
0	1714	52.028105397111	1
0	1716	52.05823492285	2
0	1718	52.065569116234	2
0	1722	52.164735782901	0
0	1724	52.254654919307	1
0	1726	52.353821585974	0
0	1728	52.411004303978	1
0	1730	52.510170970645	0
0	1732	52.784583025028	1
0	1734	52.814151844656	2
0	1736	52.86496734387	2
0	1739	52.906921394881	2
0	1742	52.92115652569	2
0	1746	53.020323192357	0
0	1748	53.065997491157	1
0	1750	53.066280354628	2
0	1753	53.165447021295	0
0	1755	53.275394876248	1
0	1757	53.374561542915	0
0	1759	53.404366013389	1
0	1761	53.415559517416	2
0	1763	53.430626880938	2
0	1767	53.529793547605	0
0	1769	53.636167695027	1
0	1771	53.734678476661	2
0	1774	53.833845143328	0
0	1776	53.946895752749	1
0	1778	54.036643428719	2
0	1781	54.112417906798	2
0	1784	54.207611465631	2
0	1787	54.260499253256	2
0	1790	54.359665919923	0
0	1792	54.373234036863	1
0	1794	54.460411584893	2
0	1797	54.550370872418	2
0	1799	54.558694942996	2
0	1802	54.635269119914	2
0	1806	54.734435786581	0
0	1808	54.763649508886	1
0	1810	54.862816175553	0
0	1812	54.918428275504	1
0	1814	54.959150221544	2
0	1817	55.058316888211	0
0	1819	55.088658145626	1
0	1821	55.163735378606	2
0	1824	55.262902045273	0
0	1826	55.30865276186	1
0	1828	55.326218530391	2
0	1831	55.425385197058	0
0	1833	55.456772856462	1
0	1835	55.469291852836	2
0	1837	55.484550402219	2
0	1839	55.541853923944	2
0	1844	55.641020590611	0
0	1846	55.688325327726	1
0	1848	55.703616877575	2
0	1851	55.802783544242	0
0	1853	55.842592176295	1
0	1855	55.941758842962	0
0	1857	55.98937801108	1
0	1859	56.010595123383	2
0	1861	56.038154604044	2
0	1863	56.085255344827	2
0	1868	56.184422011494	0
0	1870	56.241495817726	1
0	1872	56.340662484393	0
0	1874	56.470230733513	1
0	1876	56.501734347782	2
0	1879	56.600901014449	0
0	1881	56.732584383074	1
0	1883	56.831751049741	0
0	1885	56.870617234037	1
0	1887	56.903393523339	2
0	1890	56.99745991726	2
0	1893	57.065431735016	2
0	1895	57.071992970281	2
0	1898	57.143703488888	2
0	1902	57.186543233015	2
0	1904	57.22002178227	2
0	1908	57.303338619094	2
0	1911	57.372314402145	2
0	1914	57.471481068812	0
0	1916	57.548572084115	1
0	1918	57.647738750782	0
0	1920	57.650487310164	1
0	1922	57.749653976831	0
0	1924	57.85897273024	1
0	1926	57.958139396907	0
0	1928	57.964040343409	1
0	1930	57.987687756199	2
0	1932	57.995628275391	2
0	1934	58.039288651275	2
0	1939	58.138455317942	0
0	1941	58.180073692987	1
0	1943	58.230116016248	2
0	1946	58.329282682915	0
0	1948	58.812267667194	1
0	1950	58.911434333861	0
0	1952	58.951941334293	1
0	1954	58.961527185132	2
0	1956	59.036492547738	2
0	1960	59.135659214405	0
0	1962	59.354526382741	1
0	1964	59.356497168983	2
0	1967	59.45566383565	0
0	1969	59.544591279013	1
0	1971	59.554508592337	2
0	1973	59.57223783169	2
0	1977	59.671404498357	0
0	1979	59.730996420454	1
0	1981	59.830163087121	0
0	1983	59.853577860834	1
0	1985	59.861054650131	2
0	1988	59.960221316798	0
0	1990	60.222519047198	1
0	1992	60.321685713865	0
0	1994	60.627425941196	1
0	1996	60.663235014212	2
0	1999	60.762401680879	0
0	2001	60.833671018595	1
0	2003	60.932837685262	0
0	2005	60.951828307517	1
0	2007	61.050994974184	0
0	2009	61.113324556079	1
0	2011	61.119167723607	2
0	2013	61.196297464569	2
0	2017	61.295464131236	0
0	2019	61.357848709764	1
0	2021	61.389718806232	2
0	2023	61.415099015476	2
0	2026	61.473211496508	2
0	2030	61.572378163175	0
0	2032	61.587961146975	1
0	2034	61.611426283383	2
0	2037	61.71059295005	0
0	2039	61.797339876559	1
0	2041	61.797725950202	2
0	2043	61.843363904218	2
0	2045	61.863197188404	2
0	2047	61.882131329565	2
0	2049	61.893767075362	2
0	2056	61.992933742029	0
0	2058	62.026826452284	1
0	2060	62.125993118951	0
0	2062	62.127433028113	1
0	2064	62.16351367531	2
0	2066	62.168557554832	2
0	2070	62.267724221499	0
0	2072	62.371011313212	1
0	2074	62.418557069935	2
0	2077	62.476928736871	2
0	2079	62.480547713937	2
0	2083	62.579714380604	0
0	2085	62.650570869078	1
0	2087	62.686913103968	2
0	2090	62.786079770635	0
0	2092	62.927832502726	1
0	2094	62.960106109995	2
0	2096	62.97931332264	2
0	2100	63.078479989307	0
0	2102	63.366180744437	1
0	2104	63.403398361551	2
0	2107	63.502565028218	0
0	2109	63.748025166703	1
0	2111	63.788208910478	2
0	2113	63.827749106223	2
0	2116	63.857232797457	2
0	2118	63.865841247333	2
0	2122	63.954762523073	2
0	2126	64.05392918974	0
0	2128	64.214105981063	1
0	2130	64.221341482622	2
0	2132	64.231868978732	2
0	2134	64.24707737907	2
0	2138	64.322685100582	2
0	2140	64.323571542073	2
0	2144	64.402837083251	2
0	2148	64.502003749918	0
0	2150	64.584669278472	1
0	2152	64.683835945139	0
0	2154	64.7023455401	1
0	2156	64.771742928455	2
0	2159	64.870909595122	0
0	2161	64.919208628935	1
0	2163	65.018375295602	0
0	2165	65.168417106775	1
0	2167	65.171157030719	2
0	2170	65.270323697386	0
0	2172	65.272148578249	1
0	2174	65.302474204618	2
0	2177	65.401640871285	0
0	2179	65.565570380332	1
0	2181	65.664737046999	0
0	2183	65.778257136272	1
0	2185	65.877423802939	0
0	2187	66.13830854935	1
0	2189	66.187894360994	2
0	2192	66.287061027661	0
0	2194	66.399643027887	1
0	2196	66.433813027624	2
0	2198	66.448118339784	2
0	2201	66.502578558692	2
0	2205	66.601745225359	0
0	2207	66.629658264334	1
0	2209	66.65081781278	2
0	2211	66.653863264505	2
0	2215	66.751511370238	2
0	2218	66.754955496875	2
0	2221	66.854122163542	0
0	2223	66.907186344479	1
0	2225	66.982222615329	2
0	2228	67.081389281996	0
0	2230	67.323672817073	1
0	2232	67.330833713756	2
0	2235	67.430000380423	0
0	2237	67.580916629083	1
0	2239	67.68008329575	0
0	2241	67.711566052166	1
0	2243	67.739190781949	2
0	2245	67.772935792907	2
0	2248	67.827470101768	2
0	2252	67.926636768435	0
0	2254	68.103362450427	1
0	2256	68.202529117094	0
0	2258	68.205694639271	1
0	2260	68.24214282654	2
0	2263	68.341309493207	0
0	2265	68.400057792699	1
0	2267	68.421903539468	2
0	2270	68.521070206135	0
0	2272	68.562928543463	1
0	2274	68.654956988328	2
0	2277	68.747519570276	2
0	2280	68.817728421218	2
0	2283	68.856134212193	2
0	2285	68.870436427063	2
0	2287	68.913497724471	2
0	2292	69.012664391138	0
0	2294	69.114072123555	1
0	2296	69.176805285025	2
0	2299	69.230842305924	2
0	2301	69.245002690337	2
0	2305	69.344169357004	0
0	2307	69.651945987323	1
0	2309	69.75111265399	0
0	2311	69.806099821404	1
0	2313	69.857100389692	2
0	2316	69.956267056359	0
0	2318	69.962096085787	1
0	2320	70.05746242559	2
0	2323	70.112587353652	2
0	2325	70.131786948661	2
0	2328	70.19566400124	2
0	2331	70.212229033362	2
0	2335	70.311395700029	0
0	2337	70.448069273721	1
0	2339	70.547235940388	0
0	2341	70.790236331298	1
0	2343	70.889402997965	0
0	2345	70.980551023483	1
0	2347	71.07971769015	0
0	2349	71.189964948779	1
0	2351	71.209446445513	2
0	2353	71.236058883668	2
0	2355	71.259129396737	2
0	2359	71.330696068111	2
0	2363	71.429862734778	0
0	2365	71.652510165655	1
0	2367	71.731962949856	2
0	2369	71.740173121335	2
0	2372	71.789142454391	2
0	2376	71.888309121058	0
0	2378	71.952226949807	1
0	2380	72.036971143991	2
0	2382	72.046712437146	2
0	2386	72.145879103813	0
0	2388	72.306990799075	1
0	2390	72.363455501689	2
0	2392	72.376214828619	2
0	2396	72.475381495286	0
0	2398	72.503746477383	1
0	2400	72.549059776033	2
0	2402	72.564794008484	2
0	2405	72.63013658464	2
0	2407	72.639429408806	2
0	2412	72.738596075473	0
0	2414	72.772561902994	1
0	2416	72.804965661737	2
0	2418	72.84216271081	2
0	2422	72.939070766263	2
0	2425	73.017872894514	2
0	2428	73.117039561181	0
0	2430	73.164261462092	1
0	2432	73.205228180954	2
0	2435	73.304394847621	0
0	2437	73.406340744159	1
0	2439	73.505507410826	0
0	2441	73.653311928801	1
0	2443	73.658436091909	2
0	2445	73.66721144936	2
0	2447	73.750704474452	2
0	2452	73.849871141119	0
0	2454	73.856180319946	1
0	2456	73.879451999701	2
0	2459	73.978618666368	0
0	2461	74.220606022549	1
0	2463	74.319772689216	0
0	2465	74.595595317153	1
0	2467	74.64737019918	2
0	2469	74.65155681873	2
0	2472	74.713184256225	2
0	2474	74.744874556601	2
0	2479	74.844041223268	0
0	2481	74.92346303535	1
0	2483	75.022629702017	0
0	2485	75.027049279679	1
0	2487	75.075655067401	2
0	2489	75.106914570844	2
0	2491	75.10849994372	2
0	2494	75.164088570161	2
0	2499	75.263255236828	0
0	2501	75.266753741972	1
0	2503	75.280548524079	2
0	2505	75.293797887392	2
0	2509	75.392964554059	0
0	2511	75.398302358473	1
0	2513	75.434790196827	2
0	2516	75.533956863494	0
0	2518	75.550934649758	1
0	2520	75.575322297798	2
0	2523	75.674488964465	0
0	2525	75.792988579851	1
0	2527	75.877411531825	2
0	2530	75.976578198492	0
0	2532	75.994599626627	1
0	2534	76.086815648263	2
0	2537	76.097956022294	2
0	2539	76.164632546425	2
0	2543	76.263799213092	0
0	2545	76.385532874129	1
0	2547	76.484699540796	0
0	2549	76.514317502823	1
0	2551	76.523336594215	2
0	2554	76.622503260882	0
0	2556	76.687558777364	1
0	2558	76.689965282916	2
0	2560	76.707347940397	2
0	2564	76.806514607064	0
0	2566	76.809268957414	1
0	2568	76.900055281133	2
0	2571	76.9992219478	0
0	2573	77.077248140518	1
0	2575	77.077861466905	2
0	2577	77.152460674918	2
0	2581	77.200817193039	2
0	2583	77.246168118626	2
0	2586	77.259983119072	2
0	2590	77.353552039097	2